 TITLE = "NAVIER STOKES 2D - FD"
 VARIABLES = "X" "Y" "U" "V" "P" "U_MAG"
  ZONE F=POINT, I=          81 , J=           81
    0.00000000    0.00000000    0.00000000    0.00000000    0.00000000    0.00000000
    0.01250000    0.00000000    0.00000000    0.00000000    0.02662703    0.00000000
    0.02500000    0.00000000    0.00000000    0.00000000    0.04945116    0.00000000
    0.03750000    0.00000000    0.00000000    0.00000000    0.05494072    0.00000000
    0.05000000    0.00000000    0.00000000    0.00000000    0.03445588    0.00000000
    0.06250000    0.00000000    0.00000000    0.00000000   -0.01068985    0.00000000
    0.07500000    0.00000000    0.00000000    0.00000000   -0.07768753    0.00000000
    0.08750000    0.00000000    0.00000000    0.00000000   -0.16301742    0.00000000
    0.10000000    0.00000000    0.00000000    0.00000000   -0.26343504    0.00000000
    0.11250000    0.00000000    0.00000000    0.00000000   -0.37624842    0.00000000
    0.12500000    0.00000000    0.00000000    0.00000000   -0.49948384    0.00000000
    0.13750000    0.00000000    0.00000000    0.00000000   -0.63191200    0.00000000
    0.15000000    0.00000000    0.00000000    0.00000000   -0.77298463    0.00000000
    0.16250000    0.00000000    0.00000000    0.00000000   -0.92269739    0.00000000
    0.17500000    0.00000000    0.00000000    0.00000000   -1.08142366    0.00000000
    0.18750000    0.00000000    0.00000000    0.00000000   -1.24973267    0.00000000
    0.20000000    0.00000000    0.00000000    0.00000000   -1.42821065    0.00000000
    0.21250000    0.00000000    0.00000000    0.00000000   -1.61730445    0.00000000
    0.22500000    0.00000000    0.00000000    0.00000000   -1.81719906    0.00000000
    0.23750000    0.00000000    0.00000000    0.00000000   -2.02772325    0.00000000
    0.25000000    0.00000000    0.00000000    0.00000000   -2.24828110    0.00000000
    0.26250000    0.00000000    0.00000000    0.00000000   -2.47780946    0.00000000
    0.27500000    0.00000000    0.00000000    0.00000000   -2.71474669    0.00000000
    0.28750000    0.00000000    0.00000000    0.00000000   -2.95701065    0.00000000
    0.30000000    0.00000000    0.00000000    0.00000000   -3.20199047    0.00000000
    0.31250000    0.00000000    0.00000000    0.00000000   -3.44654769    0.00000000
    0.32500000    0.00000000    0.00000000    0.00000000   -3.68703080    0.00000000
    0.33750000    0.00000000    0.00000000    0.00000000   -3.91931302    0.00000000
    0.35000000    0.00000000    0.00000000    0.00000000   -4.13885373    0.00000000
    0.36250000    0.00000000    0.00000000    0.00000000   -4.34078519    0.00000000
    0.37500000    0.00000000    0.00000000    0.00000000   -4.52003100    0.00000000
    0.38750000    0.00000000    0.00000000    0.00000000   -4.67145547    0.00000000
    0.40000000    0.00000000    0.00000000    0.00000000   -4.79003856    0.00000000
    0.41250000    0.00000000    0.00000000    0.00000000   -4.87107617    0.00000000
    0.42500000    0.00000000    0.00000000    0.00000000   -4.91040081    0.00000000
    0.43750000    0.00000000    0.00000000    0.00000000   -4.90461126    0.00000000
    0.45000000    0.00000000    0.00000000    0.00000000   -4.85130283    0.00000000
    0.46250000    0.00000000    0.00000000    0.00000000   -4.74928950    0.00000000
    0.47500000    0.00000000    0.00000000    0.00000000   -4.59880276    0.00000000
    0.48750000    0.00000000    0.00000000    0.00000000   -4.40165372    0.00000000
    0.50000000    0.00000000    0.00000000    0.00000000   -4.16134893    0.00000000
    0.51250000    0.00000000    0.00000000    0.00000000   -3.88313646    0.00000000
    0.52500000    0.00000000    0.00000000    0.00000000   -3.57392531    0.00000000
    0.53750000    0.00000000    0.00000000    0.00000000   -3.24215334    0.00000000
    0.55000000    0.00000000    0.00000000    0.00000000   -2.89764136    0.00000000
    0.56250000    0.00000000    0.00000000    0.00000000   -2.55128981    0.00000000
    0.57500000    0.00000000    0.00000000    0.00000000   -2.21468918    0.00000000
    0.58750000    0.00000000    0.00000000    0.00000000   -1.89967881    0.00000000
    0.60000000    0.00000000    0.00000000    0.00000000   -1.61785127    0.00000000
    0.61250000    0.00000000    0.00000000    0.00000000   -1.38002881    0.00000000
    0.62500000    0.00000000    0.00000000    0.00000000   -1.19574285    0.00000000
    0.63750000    0.00000000    0.00000000    0.00000000   -1.07275146    0.00000000
    0.65000000    0.00000000    0.00000000    0.00000000   -1.01662931    0.00000000
    0.66250000    0.00000000    0.00000000    0.00000000   -1.03046139    0.00000000
    0.67500000    0.00000000    0.00000000    0.00000000   -1.11466799    0.00000000
    0.68750000    0.00000000    0.00000000    0.00000000   -1.26697971    0.00000000
    0.70000000    0.00000000    0.00000000    0.00000000   -1.48256848    0.00000000
    0.71250000    0.00000000    0.00000000    0.00000000   -1.75432853    0.00000000
    0.72500000    0.00000000    0.00000000    0.00000000   -2.07328898    0.00000000
    0.73750000    0.00000000    0.00000000    0.00000000   -2.42912733    0.00000000
    0.75000000    0.00000000    0.00000000    0.00000000   -2.81074146    0.00000000
    0.76250000    0.00000000    0.00000000    0.00000000   -3.20683659    0.00000000
    0.77500000    0.00000000    0.00000000    0.00000000   -3.60648458    0.00000000
    0.78750000    0.00000000    0.00000000    0.00000000   -3.99961521    0.00000000
    0.80000000    0.00000000    0.00000000    0.00000000   -4.37741105    0.00000000
    0.81250000    0.00000000    0.00000000    0.00000000   -4.73257870    0.00000000
    0.82500000    0.00000000    0.00000000    0.00000000   -5.05952685    0.00000000
    0.83750000    0.00000000    0.00000000    0.00000000   -5.35434343    0.00000000
    0.85000000    0.00000000    0.00000000    0.00000000   -5.61468406    0.00000000
    0.86250000    0.00000000    0.00000000    0.00000000   -5.83961419    0.00000000
    0.87500000    0.00000000    0.00000000    0.00000000   -6.02932321    0.00000000
    0.88750000    0.00000000    0.00000000    0.00000000   -6.18479140    0.00000000
    0.90000000    0.00000000    0.00000000    0.00000000   -6.30742494    0.00000000
    0.91250000    0.00000000    0.00000000    0.00000000   -6.39870486    0.00000000
    0.92500000    0.00000000    0.00000000    0.00000000   -6.45987977    0.00000000
    0.93750000    0.00000000    0.00000000    0.00000000   -6.49185577    0.00000000
    0.95000000    0.00000000    0.00000000    0.00000000   -6.49526241    0.00000000
    0.96250000    0.00000000    0.00000000    0.00000000   -6.47192344    0.00000000
    0.97500000    0.00000000    0.00000000    0.00000000   -6.42611985    0.00000000
    0.98750000    0.00000000    0.00000000    0.00000000   -6.37689724    0.00000000
    1.00000000    0.00000000    0.00000000    0.00000000   -6.34630987    0.00000000
    0.00000000    0.01250000    0.00000000    0.00000000   -0.02634947    0.00000000
    0.01250000    0.01250000    0.00005285   -0.00005482    0.00019645    0.00007615
    0.02500000    0.01250000    0.00030522   -0.00010238    0.00474088    0.00032193
    0.03750000    0.01250000    0.00063867   -0.00013025   -0.00013386    0.00065182
    0.05000000    0.01250000    0.00101308   -0.00013493   -0.02374896    0.00102203
    0.06250000    0.01250000    0.00137377   -0.00012479   -0.06496856    0.00137943
    0.07500000    0.01250000    0.00168638   -0.00010496   -0.12328661    0.00168964
    0.08750000    0.01250000    0.00192673   -0.00007964   -0.19690388    0.00192838
    0.10000000    0.01250000    0.00208092   -0.00005177   -0.28399287    0.00208156
    0.11250000    0.01250000    0.00214215   -0.00002337   -0.38283996    0.00214228
    0.12500000    0.01250000    0.00210859    0.00000436   -0.49209047    0.00210860
    0.13750000    0.01250000    0.00198122    0.00003088   -0.61082929    0.00198146
    0.15000000    0.01250000    0.00176214    0.00005620   -0.73857509    0.00176303
    0.16250000    0.01250000    0.00145321    0.00008068   -0.87521099    0.00145545
    0.17500000    0.01250000    0.00105520    0.00010491   -1.02089513    0.00106040
    0.18750000    0.01250000    0.00056733    0.00012955   -1.17593819    0.00058193
    0.20000000    0.01250000   -0.00001274    0.00015520   -1.34068306    0.00015572
    0.21250000    0.01250000   -0.00068867    0.00018234   -1.51538988    0.00071240
    0.22500000    0.01250000   -0.00146491    0.00021126   -1.70013697    0.00148007
    0.23750000    0.01250000   -0.00234611    0.00024204   -1.89474173    0.00235856
    0.25000000    0.01250000   -0.00333647    0.00027457   -2.09869529    0.00334775
    0.26250000    0.01250000   -0.00443914    0.00030853   -2.31111129    0.00444985
    0.27500000    0.01250000   -0.00565560    0.00034346   -2.53068847    0.00566602
    0.28750000    0.01250000   -0.00698524    0.00037872   -2.75568014    0.00699550
    0.30000000    0.01250000   -0.00842487    0.00041356   -2.98387313    0.00843502
    0.31250000    0.01250000   -0.00996842    0.00044712   -3.21258024    0.00997844
    0.32500000    0.01250000   -0.01160664    0.00047842   -3.43864590    0.01161650
    0.33750000    0.01250000   -0.01332694    0.00050642   -3.65846945    0.01333656
    0.35000000    0.01250000   -0.01511330    0.00053000   -3.86805259    0.01512259
    0.36250000    0.01250000   -0.01694622    0.00054802   -4.06307199    0.01695508
    0.37500000    0.01250000   -0.01880295    0.00055935   -4.23897823    0.01881127
    0.38750000    0.01250000   -0.02065761    0.00056290   -4.39112448    0.02066528
    0.40000000    0.01250000   -0.02248165    0.00055765   -4.51492321    0.02248857
    0.41250000    0.01250000   -0.02424428    0.00054272   -4.60602580    0.02425035
    0.42500000    0.01250000   -0.02591307    0.00051741   -4.66052214    0.02591823
    0.43750000    0.01250000   -0.02745464    0.00048120   -4.67515379    0.02745886
    0.45000000    0.01250000   -0.02883548    0.00043387   -4.64752944    0.02883874
    0.46250000    0.01250000   -0.03002273    0.00037546   -4.57633304    0.03002508
    0.47500000    0.01250000   -0.03098515    0.00030632   -4.46151381    0.03098666
    0.48750000    0.01250000   -0.03169398    0.00022718   -4.30444306    0.03169480
    0.50000000    0.01250000   -0.03212399    0.00013910   -4.10802791    0.03212429
    0.51250000    0.01250000   -0.03225435    0.00004356   -3.87677840    0.03225438
    0.52500000    0.01250000   -0.03206951   -0.00005766   -3.61671800    0.03206956
    0.53750000    0.01250000   -0.03156026   -0.00016243   -3.33526964    0.03156068
    0.55000000    0.01250000   -0.03072427   -0.00026838   -3.04114431    0.03072544
    0.56250000    0.01250000   -0.02956630   -0.00037291   -2.74407232    0.02956865
    0.57500000    0.01250000   -0.02809860   -0.00047329   -2.45442417    0.02810258
    0.58750000    0.01250000   -0.02634097   -0.00056674   -2.18281669    0.02634707
    0.60000000    0.01250000   -0.02432066   -0.00065050   -1.93965935    0.02432936
    0.61250000    0.01250000   -0.02207187   -0.00072202   -1.73467843    0.02208368
    0.62500000    0.01250000   -0.01963513   -0.00077900   -1.57644452    0.01965058
    0.63750000    0.01250000   -0.01705632   -0.00081957   -1.47193562    0.01707600
    0.65000000    0.01250000   -0.01438541   -0.00084237   -1.42616839    0.01441005
    0.66250000    0.01250000   -0.01167504   -0.00084665   -1.44192652    0.01170570
    0.67500000    0.01250000   -0.00897890   -0.00083235   -1.51960957    0.00901740
    0.68750000    0.01250000   -0.00634995   -0.00080010   -1.65721861    0.00640015
    0.70000000    0.01250000   -0.00383866   -0.00075121   -1.85048387    0.00391148
    0.71250000    0.01250000   -0.00149134   -0.00068763   -2.09312662    0.00164223
    0.72500000    0.01250000    0.00065153   -0.00061186   -2.37723635    0.00089379
    0.73750000    0.01250000    0.00255651   -0.00052681   -2.69373683    0.00261022
    0.75000000    0.01250000    0.00419833   -0.00043563   -3.03289478    0.00422087
    0.76250000    0.01250000    0.00556043   -0.00034155   -3.38483735    0.00557091
    0.77500000    0.01250000    0.00663519   -0.00024771   -3.74004248    0.00663982
    0.78750000    0.01250000    0.00742370   -0.00015699   -4.08976063    0.00742536
    0.80000000    0.01250000    0.00793509   -0.00007188   -4.42634920    0.00793541
    0.81250000    0.01250000    0.00818559    0.00000560   -4.74347983    0.00818559
    0.82500000    0.01250000    0.00819708    0.00007400   -5.03633593    0.00819741
    0.83750000    0.01250000    0.00799620    0.00013243   -5.30152286    0.00799730
    0.85000000    0.01250000    0.00761214    0.00018059   -5.53693796    0.00761428
    0.86250000    0.01250000    0.00707538    0.00021865   -5.74169735    0.00707875
    0.87500000    0.01250000    0.00641641    0.00024715   -5.91588247    0.00642117
    0.88750000    0.01250000    0.00566491    0.00026678   -6.06028914    0.00567119
    0.90000000    0.01250000    0.00484950    0.00027817   -6.17616841    0.00485747
    0.91250000    0.01250000    0.00399809    0.00028159   -6.26501236    0.00400800
    0.92500000    0.01250000    0.00313935    0.00027655   -6.32837114    0.00315151
    0.93750000    0.01250000    0.00230446    0.00026154   -6.36792704    0.00231926
    0.95000000    0.01250000    0.00153103    0.00023319   -6.38533635    0.00154869
    0.96250000    0.01250000    0.00086169    0.00018743   -6.38394376    0.00088184
    0.97500000    0.01250000    0.00035658    0.00011688   -6.36576076    0.00037525
    0.98750000    0.01250000    0.00004126    0.00003926   -6.34638661    0.00005695
    1.00000000    0.01250000    0.00000000    0.00000000   -6.31546009    0.00000000
    0.00000000    0.02500000    0.00000000    0.00000000   -0.04907079    0.00000000
    0.01250000    0.02500000    0.00010030   -0.00030890   -0.00413929    0.00032477
    0.02500000    0.02500000    0.00052722   -0.00053082    0.00033155    0.00074815
    0.03750000    0.02500000    0.00105830   -0.00064908   -0.00368692    0.00124149
    0.05000000    0.02500000    0.00163494   -0.00066758   -0.02702361    0.00176598
    0.06250000    0.02500000    0.00217343   -0.00061001   -0.06702998    0.00225741
    0.07500000    0.02500000    0.00261931   -0.00049886   -0.12325870    0.00266640
    0.08750000    0.02500000    0.00293242   -0.00035371   -0.19391548    0.00295368
    0.10000000    0.02500000    0.00308776   -0.00018975   -0.27731349    0.00309358
    0.11250000    0.02500000    0.00307130   -0.00001789   -0.37188299    0.00307135
    0.12500000    0.02500000    0.00287690    0.00015490   -0.47640523    0.00288107
    0.13750000    0.02500000    0.00250314    0.00032507   -0.59007279    0.00252416
    0.15000000    0.02500000    0.00195071    0.00049181   -0.71248664    0.00201175
    0.16250000    0.02500000    0.00122038    0.00065632   -0.84359544    0.00138567
    0.17500000    0.02500000    0.00031166    0.00082097   -0.98360510    0.00087813
    0.18750000    0.02500000   -0.00077788    0.00098853   -1.13286620    0.00125789
    0.20000000    0.02500000   -0.00205259    0.00116156   -1.29176056    0.00235846
    0.21250000    0.02500000   -0.00351823    0.00134193   -1.46059684    0.00376547
    0.22500000    0.02500000   -0.00518115    0.00153046   -1.63951831    0.00540246
    0.23750000    0.02500000   -0.00704714    0.00172688   -1.82842591    0.00725564
    0.25000000    0.02500000   -0.00912039    0.00192973   -2.02691667    0.00932231
    0.26250000    0.02500000   -0.01140236    0.00213648   -2.23423286    0.01160079
    0.27500000    0.02500000   -0.01389082    0.00234363   -2.44921929    0.01408714
    0.28750000    0.02500000   -0.01657904    0.00254688   -2.67028899    0.01677353
    0.30000000    0.02500000   -0.01945516    0.00274121   -2.89539609    0.01964733
    0.31250000    0.02500000   -0.02250169    0.00292107   -3.12201858    0.02269050
    0.32500000    0.02500000   -0.02569523    0.00308050   -3.34715581    0.02587923
    0.33750000    0.02500000   -0.02900641    0.00321331   -3.56734414    0.02918385
    0.35000000    0.02500000   -0.03239997    0.00331326   -3.77869480    0.03256893
    0.36250000    0.02500000   -0.03583512    0.00337426   -3.97695882    0.03599363
    0.37500000    0.02500000   -0.03926609    0.00339054   -4.15762133    0.03941220
    0.38750000    0.02500000   -0.04264286    0.00335696   -4.31602551    0.04277479
    0.40000000    0.02500000   -0.04591209    0.00326913   -4.44752651    0.04602833
    0.41250000    0.02500000   -0.04901824    0.00312368   -4.54767261    0.04911767
    0.42500000    0.02500000   -0.05190475    0.00291839   -4.61240768    0.05198673
    0.43750000    0.02500000   -0.05451541    0.00265243   -4.63828825    0.05457990
    0.45000000    0.02500000   -0.05679565    0.00232642   -4.62270635    0.05684327
    0.46250000    0.02500000   -0.05869400    0.00194257   -4.56410660    0.05872613
    0.47500000    0.02500000   -0.06016343    0.00150473   -4.46218408    0.06018224
    0.48750000    0.02500000   -0.06116268    0.00101846   -4.31804949    0.06117115
    0.50000000    0.02500000   -0.06165754    0.00049099   -4.13435327    0.06165949
    0.51250000    0.02500000   -0.06162204   -0.00006873   -3.91534930    0.06162207
    0.52500000    0.02500000   -0.06103938   -0.00065012   -3.66683977    0.06104284
    0.53750000    0.02500000   -0.05990293   -0.00124127   -3.39609486    0.05991579
    0.55000000    0.02500000   -0.05821653   -0.00182958   -3.11169719    0.05824527
    0.56250000    0.02500000   -0.05599488   -0.00240188   -2.82326361    0.05604637
    0.57500000    0.02500000   -0.05326369   -0.00294471   -2.54110329    0.05334503
    0.58750000    0.02500000   -0.05005957   -0.00344465   -2.27581052    0.05017794
    0.60000000    0.02500000   -0.04642957   -0.00388882   -2.03780527    0.04659214
    0.61250000    0.02500000   -0.04243052   -0.00426536   -1.83684823    0.04264437
    0.62500000    0.02500000   -0.03812797   -0.00456387   -1.68155882    0.03840014
    0.63750000    0.02500000   -0.03359484   -0.00477591   -1.57896838    0.03393262
    0.65000000    0.02500000   -0.02890981   -0.00489542   -1.53414137    0.02932136
    0.66250000    0.02500000   -0.02415535   -0.00491908   -1.54989542    0.02465113
    0.67500000    0.02500000   -0.01941559   -0.00484658   -1.62664559    0.02001136
    0.68750000    0.02500000   -0.01477400   -0.00468072   -1.76238905    0.01549775
    0.70000000    0.02500000   -0.01031098   -0.00442743   -1.95283579    0.01122134
    0.71250000    0.02500000   -0.00610146   -0.00409557   -2.19167824    0.00734858
    0.72500000    0.02500000   -0.00221267   -0.00369662   -2.47097774    0.00430824
    0.73750000    0.02500000    0.00129795   -0.00324417   -2.78164435    0.00349418
    0.75000000    0.02500000    0.00438443   -0.00275334   -3.11396696    0.00517727
    0.76250000    0.02500000    0.00701357   -0.00223999   -3.45813417    0.00736259
    0.77500000    0.02500000    0.00916558   -0.00172001   -3.80472884    0.00932557
    0.78750000    0.02500000    0.01083425   -0.00120856   -4.14515974    0.01090144
    0.80000000    0.02500000    0.01202649   -0.00071936   -4.47199056    0.01204798
    0.81250000    0.02500000    0.01276133   -0.00026414   -4.77914921    0.01276406
    0.82500000    0.02500000    0.01306829    0.00014766   -5.06204542    0.01306913
    0.83750000    0.02500000    0.01298558    0.00050930   -5.31754470    0.01299557
    0.85000000    0.02500000    0.01255784    0.00081700   -5.54384424    0.01258439
    0.86250000    0.02500000    0.01183395    0.00106946   -5.74031043    0.01188217
    0.87500000    0.02500000    0.01086497    0.00126724   -5.90724554    0.01093863
    0.88750000    0.02500000    0.00970269    0.00141196   -6.04563390    0.00980488
    0.90000000    0.02500000    0.00839879    0.00150511   -6.15688461    0.00853258
    0.91250000    0.02500000    0.00700508    0.00154674   -6.24261599    0.00717381
    0.92500000    0.02500000    0.00557497    0.00153385   -6.30444486    0.00578212
    0.93750000    0.02500000    0.00416541    0.00145924   -6.34406030    0.00441362
    0.95000000    0.02500000    0.00284166    0.00131078   -6.36278376    0.00312940
    0.96250000    0.02500000    0.00167330    0.00107517   -6.36368829    0.00198895
    0.97500000    0.02500000    0.00075530    0.00074290   -6.34567710    0.00105942
    0.98750000    0.02500000    0.00012259    0.00035440   -6.32658565    0.00037500
    1.00000000    0.02500000    0.00000000    0.00000000   -6.26515465    0.00000000
    0.00000000    0.03750000    0.00000000    0.00000000   -0.05497812    0.00000000
    0.01250000    0.03750000    0.00012951   -0.00064517    0.00066675    0.00065804
    0.02500000    0.03750000    0.00064886   -0.00106466    0.00383843    0.00124680
    0.03750000    0.03750000    0.00126313   -0.00126510   -0.00069351    0.00178773
    0.05000000    0.03750000    0.00190244   -0.00127356   -0.02456528    0.00228937
    0.06250000    0.03750000    0.00246738   -0.00113283   -0.06380350    0.00271501
    0.07500000    0.03750000    0.00289314   -0.00088446   -0.11792466    0.00302531
    0.08750000    0.03750000    0.00313020   -0.00056483   -0.18516068    0.00318075
    0.10000000    0.03750000    0.00314592   -0.00020299   -0.26399700    0.00315246
    0.11250000    0.03750000    0.00292000    0.00017972   -0.35305631    0.00292553
    0.12500000    0.03750000    0.00244128    0.00056932   -0.45130963    0.00250678
    0.13750000    0.03750000    0.00170426    0.00095833   -0.55812430    0.00195522
    0.15000000    0.03750000    0.00070626    0.00134453   -0.67325212    0.00151874
    0.16250000    0.03750000   -0.00055481    0.00172954   -0.79677266    0.00181635
    0.17500000    0.03750000   -0.00208194    0.00211721   -0.92900290    0.00296935
    0.18750000    0.03750000   -0.00387958    0.00251215   -1.07039594    0.00462191
    0.20000000    0.03750000   -0.00595351    0.00291841   -1.22143858    0.00663034
    0.21250000    0.03750000   -0.00831005    0.00333852   -1.38255417    0.00895559
    0.22500000    0.03750000   -0.01095487    0.00377284   -1.55401910    0.01158635
    0.23750000    0.03750000   -0.01389155    0.00421933   -1.73589285    0.01451819
    0.25000000    0.03750000   -0.01712011    0.00467348   -1.92795693    0.01774654
    0.26250000    0.03750000   -0.02063569    0.00512852   -2.12966209    0.02126343
    0.27500000    0.03750000   -0.02442735    0.00557572   -2.34008067    0.02505562
    0.28750000    0.03750000   -0.02847718    0.00600470   -2.55786147    0.02910337
    0.30000000    0.03750000   -0.03275969    0.00640379   -2.78119028    0.03337972
    0.31250000    0.03750000   -0.03724147    0.00676046   -3.00775991    0.03785011
    0.32500000    0.03750000   -0.04188122    0.00706167   -3.23475290    0.04247239
    0.33750000    0.03750000   -0.04663007    0.00729433   -3.45884349    0.04719714
    0.35000000    0.03750000   -0.05143218    0.00744573   -3.67622521    0.05196834
    0.36250000    0.03750000   -0.05622574    0.00750401   -3.88266730    0.05672428
    0.37500000    0.03750000   -0.06094404    0.00745863   -4.07360367    0.06139876
    0.38750000    0.03750000   -0.06551697    0.00730077   -4.24425697    0.06592249
    0.40000000    0.03750000   -0.06987247    0.00702374   -4.38979616    0.07022460
    0.41250000    0.03750000   -0.07393823    0.00662330   -4.50552417    0.07423429
    0.42500000    0.03750000   -0.07764333    0.00609798   -4.58709086    0.07788242
    0.43750000    0.03750000   -0.08091990    0.00544921   -4.63072290    0.08110317
    0.45000000    0.03750000   -0.08370469    0.00468148   -4.63345951    0.08383550
    0.46250000    0.03750000   -0.08594054    0.00380238   -4.59338313    0.08602461
    0.47500000    0.03750000   -0.08757769    0.00282256   -4.50983029    0.08762316
    0.48750000    0.03750000   -0.08857497    0.00175568   -4.38356562    0.08859236
    0.50000000    0.03750000   -0.08890079    0.00061823   -4.21691511    0.08890294
    0.51250000    0.03750000   -0.08853406   -0.00057063   -4.01385186    0.08853590
    0.52500000    0.03750000   -0.08746480   -0.00178952   -3.77997509    0.08748311
    0.53750000    0.03750000   -0.08569430   -0.00301536   -3.52235720    0.08574734
    0.55000000    0.03750000   -0.08323536   -0.00422401   -3.24943370    0.08334247
    0.56250000    0.03750000   -0.08011248   -0.00539059   -2.97073001    0.08029364
    0.57500000    0.03750000   -0.07636178   -0.00649004   -2.69651872    0.07663708
    0.58750000    0.03750000   -0.07203073   -0.00749776   -2.43740688    0.07241990
    0.60000000    0.03750000   -0.06717769   -0.00839035   -2.20387096    0.06769963
    0.61250000    0.03750000   -0.06187118   -0.00914631   -2.00576364    0.06254357
    0.62500000    0.03750000   -0.05618891   -0.00974686   -1.85182117    0.05702802
    0.63750000    0.03750000   -0.05021647   -0.01017671   -1.74920435    0.05123728
    0.65000000    0.03750000   -0.04404583   -0.01042473   -1.70310692    0.04526268
    0.66250000    0.03750000   -0.03777350   -0.01048458   -1.71646311    0.03920157
    0.67500000    0.03750000   -0.03149839   -0.01035518   -1.78978122    0.03315688
    0.68750000    0.03750000   -0.02531957   -0.01004101   -1.92112143    0.02723789
    0.70000000    0.03750000   -0.01933376   -0.00955214   -2.10622462    0.02156473
    0.71250000    0.03750000   -0.01363282   -0.00890403   -2.33878468    0.01628298
    0.72500000    0.03750000   -0.00830128   -0.00811709   -2.61084475    0.01161027
    0.73750000    0.03750000   -0.00341390   -0.00721595   -2.91328692    0.00798277
    0.75000000    0.03750000    0.00096638   -0.00622848   -3.23637645    0.00630301
    0.76250000    0.03750000    0.00479027   -0.00518465   -3.57031892    0.00705884
    0.77500000    0.03750000    0.00802346   -0.00411509   -3.90576035    0.00901720
    0.78750000    0.03750000    0.01064730   -0.00304984   -4.23421728    0.01107550
    0.80000000    0.03750000    0.01265897   -0.00201700   -4.54842570    0.01281865
    0.81250000    0.03750000    0.01407090   -0.00104151   -4.84255110    0.01410939
    0.82500000    0.03750000    0.01490964   -0.00014428   -5.11228664    0.01491034
    0.83750000    0.03750000    0.01521411    0.00065853   -5.35481784    0.01522836
    0.85000000    0.03750000    0.01503352    0.00135593   -5.56867573    0.01509454
    0.86250000    0.03750000    0.01442509    0.00194167   -5.75357599    0.01455518
    0.87500000    0.03750000    0.01345167    0.00241345   -5.91015436    0.01366646
    0.88750000    0.03750000    0.01217971    0.00277141   -6.03970482    0.01249104
    0.90000000    0.03750000    0.01067797    0.00301621   -6.14391198    0.01109579
    0.91250000    0.03750000    0.00901705    0.00314647   -6.22462178    0.00955026
    0.92500000    0.03750000    0.00727028    0.00315623   -6.28358942    0.00792582
    0.93750000    0.03750000    0.00551478    0.00303284   -6.32252390    0.00629372
    0.95000000    0.03750000    0.00383616    0.00275647   -6.34233985    0.00472380
    0.96250000    0.03750000    0.00232207    0.00230511   -6.34564263    0.00327193
    0.97500000    0.03750000    0.00109387    0.00166308   -6.32791520    0.00199057
    0.98750000    0.03750000    0.00019628    0.00086670   -6.30936180    0.00088865
    1.00000000    0.03750000    0.00000000    0.00000000   -6.22004550    0.00000000
    0.00000000    0.05000000    0.00000000    0.00000000   -0.03475425    0.00000000
    0.01250000    0.05000000    0.00013612   -0.00102504    0.02432384    0.00103404
    0.02500000    0.05000000    0.00066986   -0.00164572    0.02639462    0.00177682
    0.03750000    0.05000000    0.00127028   -0.00190684    0.02077682    0.00229121
    0.05000000    0.05000000    0.00185777   -0.00186960   -0.00421611    0.00263566
    0.06250000    0.05000000    0.00232475   -0.00160024   -0.04383252    0.00282227
    0.07500000    0.05000000    0.00260135   -0.00116132   -0.09735016    0.00284881
    0.08750000    0.05000000    0.00263339   -0.00060708   -0.16286750    0.00270246
    0.10000000    0.05000000    0.00238365    0.00001883   -0.23887323    0.00238373
    0.11250000    0.05000000    0.00182726    0.00068395   -0.32406432    0.00195107
    0.12500000    0.05000000    0.00094852    0.00136662   -0.41754270    0.00166353
    0.13750000    0.05000000   -0.00026237    0.00205481   -0.51884512    0.00207150
    0.15000000    0.05000000   -0.00181209    0.00274440   -0.62791415    0.00328868
    0.16250000    0.05000000   -0.00370624    0.00343686   -0.74503231    0.00505453
    0.17500000    0.05000000   -0.00595053    0.00413692   -0.87072871    0.00724727
    0.18750000    0.05000000   -0.00855111    0.00485013   -1.00567255    0.00983083
    0.20000000    0.05000000   -0.01151408    0.00558092   -1.15057022    0.01279534
    0.21250000    0.05000000   -0.01484438    0.00633099   -1.30607250    0.01613806
    0.22500000    0.05000000   -0.01854425    0.00709844   -1.47269212    0.01985641
    0.23750000    0.05000000   -0.02261153    0.00787734   -1.65073448    0.02394439
    0.25000000    0.05000000   -0.02703808    0.00865778   -1.84023677    0.02839040
    0.26250000    0.05000000   -0.03180830    0.00942629   -2.04090739    0.03317564
    0.27500000    0.05000000   -0.03689812    0.01016634   -2.25206710    0.03827304
    0.28750000    0.05000000   -0.04227420    0.01085907   -2.47259145    0.04364662
    0.30000000    0.05000000   -0.04789377    0.01148402   -2.70085417    0.04925135
    0.31250000    0.05000000   -0.05370471    0.01201984   -2.93467951    0.05503338
    0.32500000    0.05000000   -0.05964623    0.01244516   -3.17131136    0.06093073