 TITLE = "NAVIER STOKES 2D - FD"
 VARIABLES = "X" "Y" "U" "V" "P" "U_MAG"
  ZONE F=POINT, I=          81 , J=           81
        0.00000000        0.00000000        0.00000000        0.00000000        0.00000000        0.00000000
        0.01250000        0.00000000        0.00000000        0.00000000        0.02603238        0.00000000
        0.02500000        0.00000000        0.00000000        0.00000000        0.04587996        0.00000000
        0.03750000        0.00000000        0.00000000        0.00000000        0.04736191        0.00000000
        0.05000000        0.00000000        0.00000000        0.00000000        0.02310908        0.00000000
        0.06250000        0.00000000        0.00000000        0.00000000       -0.02501998        0.00000000
        0.07500000        0.00000000        0.00000000        0.00000000       -0.09406903        0.00000000
        0.08750000        0.00000000        0.00000000        0.00000000       -0.18066434        0.00000000
        0.10000000        0.00000000        0.00000000        0.00000000       -0.28186915        0.00000000
        0.11250000        0.00000000        0.00000000        0.00000000       -0.39535950        0.00000000
        0.12500000        0.00000000        0.00000000        0.00000000       -0.51951981        0.00000000
        0.13750000        0.00000000        0.00000000        0.00000000       -0.65342162        0.00000000
        0.15000000        0.00000000        0.00000000        0.00000000       -0.79673142        0.00000000
        0.16250000        0.00000000        0.00000000        0.00000000       -0.94957748        0.00000000
        0.17500000        0.00000000        0.00000000        0.00000000       -1.11239553        0.00000000
        0.18750000        0.00000000        0.00000000        0.00000000       -1.28576387        0.00000000
        0.20000000        0.00000000        0.00000000        0.00000000       -1.47024659        0.00000000
        0.21250000        0.00000000        0.00000000        0.00000000       -1.66625458        0.00000000
        0.22500000        0.00000000        0.00000000        0.00000000       -1.87392911        0.00000000
        0.23750000        0.00000000        0.00000000        0.00000000       -2.09304873        0.00000000
        0.25000000        0.00000000        0.00000000        0.00000000       -2.32295612        0.00000000
        0.26250000        0.00000000        0.00000000        0.00000000       -2.56250054        0.00000000
        0.27500000        0.00000000        0.00000000        0.00000000       -2.80999154        0.00000000
        0.28750000        0.00000000        0.00000000        0.00000000       -3.06316220        0.00000000
        0.30000000        0.00000000        0.00000000        0.00000000       -3.31914232        0.00000000
        0.31250000        0.00000000        0.00000000        0.00000000       -3.57444511        0.00000000
        0.32500000        0.00000000        0.00000000        0.00000000       -3.82497208        0.00000000
        0.33750000        0.00000000        0.00000000        0.00000000       -4.06604215        0.00000000
        0.35000000        0.00000000        0.00000000        0.00000000       -4.29245055        0.00000000
        0.36250000        0.00000000        0.00000000        0.00000000       -4.49856230        0.00000000
        0.37500000        0.00000000        0.00000000        0.00000000       -4.67844347        0.00000000
        0.38750000        0.00000000        0.00000000        0.00000000       -4.82603162        0.00000000
        0.40000000        0.00000000        0.00000000        0.00000000       -4.93534425        0.00000000
        0.41250000        0.00000000        0.00000000        0.00000000       -5.00072173        0.00000000
        0.42500000        0.00000000        0.00000000        0.00000000       -5.01709809        0.00000000
        0.43750000        0.00000000        0.00000000        0.00000000       -4.98029037        0.00000000
        0.45000000        0.00000000        0.00000000        0.00000000       -4.88729461        0.00000000
        0.46250000        0.00000000        0.00000000        0.00000000       -4.73657358        0.00000000
        0.47500000        0.00000000        0.00000000        0.00000000       -4.52831968        0.00000000
        0.48750000        0.00000000        0.00000000        0.00000000       -4.26467590        0.00000000
        0.50000000        0.00000000        0.00000000        0.00000000       -3.94989842        0.00000000
        0.51250000        0.00000000        0.00000000        0.00000000       -3.59042551        0.00000000
        0.52500000        0.00000000        0.00000000        0.00000000       -3.19476975        0.00000000
        0.53750000        0.00000000        0.00000000        0.00000000       -2.77335039        0.00000000
        0.55000000        0.00000000        0.00000000        0.00000000       -2.33831865        0.00000000
        0.56250000        0.00000000        0.00000000        0.00000000       -1.90316479        0.00000000
        0.57500000        0.00000000        0.00000000        0.00000000       -1.48221201        0.00000000
        0.58750000        0.00000000        0.00000000        0.00000000       -1.09004232        0.00000000
        0.60000000        0.00000000        0.00000000        0.00000000       -0.74085236        0.00000000
        0.61250000        0.00000000        0.00000000        0.00000000       -0.44777860        0.00000000
        0.62500000        0.00000000        0.00000000        0.00000000       -0.22223410        0.00000000
        0.63750000        0.00000000        0.00000000        0.00000000       -0.07330349        0.00000000
        0.65000000        0.00000000        0.00000000        0.00000000       -0.00724248        0.00000000
        0.66250000        0.00000000        0.00000000        0.00000000       -0.02712373        0.00000000
        0.67500000        0.00000000        0.00000000        0.00000000       -0.13266199        0.00000000
        0.68750000        0.00000000        0.00000000        0.00000000       -0.32023771        0.00000000
        0.70000000        0.00000000        0.00000000        0.00000000       -0.58312248        0.00000000
        0.71250000        0.00000000        0.00000000        0.00000000       -0.91189128        0.00000000
        0.72500000        0.00000000        0.00000000        0.00000000       -1.29499270        0.00000000
        0.73750000        0.00000000        0.00000000        0.00000000       -1.71943182        0.00000000
        0.75000000        0.00000000        0.00000000        0.00000000       -2.17150261        0.00000000
        0.76250000        0.00000000        0.00000000        0.00000000       -2.63751643        0.00000000
        0.77500000        0.00000000        0.00000000        0.00000000       -3.10447757        0.00000000
        0.78750000        0.00000000        0.00000000        0.00000000       -3.56065330        0.00000000
        0.80000000        0.00000000        0.00000000        0.00000000       -3.99600104        0.00000000
        0.81250000        0.00000000        0.00000000        0.00000000       -4.40246216        0.00000000
        0.82500000        0.00000000        0.00000000        0.00000000       -4.77408559        0.00000000
        0.83750000        0.00000000        0.00000000        0.00000000       -5.10693397        0.00000000
        0.85000000        0.00000000        0.00000000        0.00000000       -5.39893815        0.00000000
        0.86250000        0.00000000        0.00000000        0.00000000       -5.64964763        0.00000000
        0.87500000        0.00000000        0.00000000        0.00000000       -5.85986410        0.00000000
        0.88750000        0.00000000        0.00000000        0.00000000       -6.03123093        0.00000000
        0.90000000        0.00000000        0.00000000        0.00000000       -6.16580129        0.00000000
        0.91250000        0.00000000        0.00000000        0.00000000       -6.26562524        0.00000000
        0.92500000        0.00000000        0.00000000        0.00000000       -6.33239229        0.00000000
        0.93750000        0.00000000        0.00000000        0.00000000       -6.36729534        0.00000000
        0.95000000        0.00000000        0.00000000        0.00000000       -6.37108820        0.00000000
        0.96250000        0.00000000        0.00000000        0.00000000       -6.34569692        0.00000000
        0.97500000        0.00000000        0.00000000        0.00000000       -6.29562021        0.00000000
        0.98750000        0.00000000        0.00000000        0.00000000       -6.24151550        0.00000000
        1.00000000        0.00000000        0.00000000        0.00000000       -6.20761565        0.00000000
        0.00000000        0.01250000        0.00000000        0.00000000       -0.02603238        0.00000000
        0.01250000        0.01250000        0.00005521       -0.00005522        0.00006147        0.00007809
        0.02500000        0.01250000        0.00030180       -0.00009918        0.00286342        0.00031768
        0.03750000        0.01250000        0.00061841       -0.00012293       -0.00447197        0.00063051
        0.05000000        0.01250000        0.00096597       -0.00012467       -0.03057840        0.00097398
        0.06250000        0.01250000        0.00129333       -0.00011298       -0.07403901        0.00129825
        0.07500000        0.01250000        0.00156974       -0.00009288       -0.13419846        0.00157248
        0.08750000        0.01250000        0.00177424       -0.00006825       -0.20930000        0.00177555
        0.10000000        0.01250000        0.00189513       -0.00004164       -0.29766091        0.00189559
        0.11250000        0.01250000        0.00192675       -0.00001468       -0.39777025        0.00192681
        0.12500000        0.01250000        0.00186732        0.00001175       -0.50848636        0.00186736
        0.13750000        0.01250000        0.00171707        0.00003735       -0.62908159        0.00171747
        0.15000000        0.01250000        0.00147672        0.00006226       -0.75921697        0.00147803
        0.16250000        0.01250000        0.00114643        0.00008691       -0.89887315        0.00114972
        0.17500000        0.01250000        0.00072514        0.00011188       -1.04826163        0.00073372
        0.18750000        0.01250000        0.00021027        0.00013778       -1.20771295        0.00025139
        0.20000000        0.01250000       -0.00040223        0.00016518       -1.37756514        0.00043483
        0.21250000        0.01250000       -0.00111758        0.00019452       -1.55805863        0.00113439
        0.22500000        0.01250000       -0.00194171        0.00022605       -1.74924254        0.00195483
        0.23750000        0.01250000       -0.00288064        0.00025985       -1.95089351        0.00289234
        0.25000000        0.01250000       -0.00393989        0.00029580       -2.16244662        0.00395098
        0.26250000        0.01250000       -0.00512384        0.00033359       -2.38293654        0.00513469
        0.27500000        0.01250000       -0.00643513        0.00037274       -2.61094705        0.00644591
        0.28750000        0.01250000       -0.00787413        0.00041259       -2.84456845        0.00788493
        0.30000000        0.01250000       -0.00943843        0.00045234       -3.08136423        0.00944926
        0.31250000        0.01250000       -0.01112241        0.00049103       -3.31834985        0.01113324
        0.32500000        0.01250000       -0.01291686        0.00052758       -3.55198806        0.01292763
        0.33750000        0.01250000       -0.01480873        0.00056077       -3.77820569        0.01481935
        0.35000000        0.01250000       -0.01678092        0.00058933       -3.99243713        0.01679126
        0.36250000        0.01250000       -0.01881221        0.00061188       -4.18969910        0.01882216
        0.37500000        0.01250000       -0.02087739        0.00062705       -4.36470013        0.02088680
        0.38750000        0.01250000       -0.02294742        0.00063350       -4.51198674        0.02295616
        0.40000000        0.01250000       -0.02498984        0.00062995       -4.62612604        0.02499778
        0.41250000        0.01250000       -0.02696929        0.00061527       -4.70192217        0.02697631
        0.42500000        0.01250000       -0.02884820        0.00058850       -4.73466120        0.02885420
        0.43750000        0.01250000       -0.03058757        0.00054895       -4.72037617        0.03059250
        0.45000000        0.01250000       -0.03214796        0.00049622       -4.65612134        0.03215179
        0.46250000        0.01250000       -0.03349047        0.00043026       -4.54024207        0.03349323
        0.47500000        0.01250000       -0.03457789        0.00035144       -4.37262405        0.03457968
        0.48750000        0.01250000       -0.03537588        0.00026053       -4.15490352        0.03537684
        0.50000000        0.01250000       -0.03585413        0.00015880       -3.89062669        0.03585448
        0.51250000        0.01250000       -0.03598767        0.00004799       -3.58534933        0.03598771
        0.52500000        0.01250000       -0.03575782       -0.00006968       -3.24651027        0.03575789
        0.53750000        0.01250000       -0.03515367       -0.00019166       -2.88328867        0.03515419
        0.55000000        0.01250000       -0.03417263       -0.00031501       -2.50648758        0.03417408
        0.56250000        0.01250000       -0.03282071       -0.00043656       -2.12817710        0.03282362
        0.57500000        0.01250000       -0.03111299       -0.00055295       -1.76120012        0.03111791
        0.58750000        0.01250000       -0.02907368       -0.00066078       -1.41866174        0.02908118
        0.60000000        0.01250000       -0.02673586       -0.00075670       -1.11334066        0.02674657
        0.61250000        0.01250000       -0.02414097       -0.00083763       -0.85707492        0.02415550
        0.62500000        0.01250000       -0.02133780       -0.00090085       -0.66015876        0.02135681
        0.63750000        0.01250000       -0.01838127       -0.00094421       -0.53079408        0.01840551
        0.65000000        0.01250000       -0.01533084       -0.00096622       -0.47463923        0.01536126
        0.66250000        0.01250000       -0.01224866       -0.00096620       -0.49449332        0.01228671
        0.67500000        0.01250000       -0.00919755       -0.00094429       -0.59014527        0.00924589
        0.68750000        0.01250000       -0.00623882       -0.00090151       -0.75840430        0.00630362
        0.70000000        0.01250000       -0.00343020       -0.00083970       -0.99331348        0.00353149
        0.71250000        0.01250000       -0.00082379       -0.00076146       -1.28652962        0.00112180
        0.72500000        0.01250000        0.00153576       -0.00066998       -1.62784615        0.00167553
        0.73750000        0.01250000        0.00361264       -0.00056888       -2.00580858        0.00365716
        0.75000000        0.01250000        0.00538101       -0.00046198       -2.40836327        0.00540081
        0.76250000        0.01250000        0.00682544       -0.00035314       -2.82350466        0.00683457
        0.77500000        0.01250000        0.00794097       -0.00024599       -3.23986558        0.00794478
        0.78750000        0.01250000        0.00873261       -0.00014378       -3.64720802        0.00873380
        0.80000000        0.01250000        0.00921444       -0.00004922       -4.03677143        0.00921458
        0.81250000        0.01250000        0.00940811        0.00003556       -4.40154252        0.00940818
        0.82500000        0.01250000        0.00934147        0.00010917       -4.73634851        0.00934210
        0.83750000        0.01250000        0.00904684        0.00017086       -5.03770886        0.00904845
        0.85000000        0.01250000        0.00855876        0.00022059       -5.30371434        0.00856160
        0.86250000        0.01250000        0.00791242        0.00025883       -5.53384753        0.00791665
        0.87500000        0.01250000        0.00714225        0.00028645       -5.72866857        0.00714799
        0.88750000        0.01250000        0.00628100        0.00030445       -5.88950213        0.00628838
        0.90000000        0.01250000        0.00535956        0.00031375       -6.01812740        0.00536873
        0.91250000        0.01250000        0.00440742        0.00031482       -6.11652020        0.00441865
        0.92500000        0.01250000        0.00345441        0.00030728       -6.18664168        0.00346805
        0.93750000        0.01250000        0.00253278        0.00028951       -6.23050906        0.00254927
        0.95000000        0.01250000        0.00168179        0.00025778       -6.25002062        0.00170143
        0.96250000        0.01250000        0.00094643        0.00020749       -6.24884223        0.00096891
        0.97500000        0.01250000        0.00039150        0.00013019       -6.22911348        0.00041258
        0.98750000        0.01250000        0.00004486        0.00004474       -6.20786802        0.00006336
        1.00000000        0.01250000        0.00000000        0.00000000       -6.17371580        0.00000000
        0.00000000        0.02500000        0.00000000        0.00000000       -0.04615340        0.00000000
        0.01250000        0.02500000        0.00009977       -0.00030205       -0.00281464        0.00031810
        0.02500000        0.02500000        0.00050727       -0.00050606       -0.00010958        0.00071653
        0.03750000        0.02500000        0.00100114       -0.00060488       -0.00657515        0.00116968
        0.05000000        0.02500000        0.00152448       -0.00060854       -0.03226203        0.00164146
        0.06250000        0.02500000        0.00199925       -0.00054252       -0.07438105        0.00207155
        0.07500000        0.02500000        0.00237660       -0.00042916       -0.13235377        0.00241503
        0.08750000        0.02500000        0.00262135       -0.00028666       -0.20444299        0.00263698
        0.10000000        0.02500000        0.00271196       -0.00012836       -0.28909985        0.00271500
        0.11250000        0.02500000        0.00263611        0.00003679       -0.38493999        0.00263636
        0.12500000        0.02500000        0.00238765        0.00020352       -0.49093535        0.00239631
        0.13750000        0.02500000        0.00196377        0.00036958       -0.60644218        0.00199824
        0.15000000        0.02500000        0.00136275        0.00053503       -0.73118521        0.00146402
        0.16250000        0.02500000        0.00058235        0.00070147       -0.86519420        0.00091170
        0.17500000        0.02500000       -0.00038124        0.00087137       -1.00871746        0.00095112
        0.18750000        0.02500000       -0.00153373        0.00104739       -1.16211883        0.00185724
        0.20000000        0.02500000       -0.00288264        0.00123188       -1.32577547        0.00313483
        0.21250000        0.02500000       -0.00443673        0.00142647       -1.49998032        0.00466041
        0.22500000        0.02500000       -0.00620507        0.00163184       -1.68485411        0.00641606
        0.23750000        0.02500000       -0.00819604        0.00184754       -1.88026870        0.00840170
        0.25000000        0.02500000       -0.01041616        0.00207200       -2.08578014        0.01062025
        0.26250000        0.02500000       -0.01286899        0.00230252       -2.30056946        0.01307335
        0.27500000        0.02500000       -0.01555405        0.00253539       -2.52338928        0.01575934
        0.28750000        0.02500000       -0.01846595        0.00276591       -2.75251616        0.01867195
        0.30000000        0.02500000       -0.02159353        0.00298859       -2.98571003        0.02179936
        0.31250000        0.02500000       -0.02491927        0.00319718       -3.22018412        0.02512353
        0.32500000        0.02500000       -0.02841884        0.00338488       -3.45259026        0.02861971
        0.33750000        0.02500000       -0.03206089        0.00354448       -3.67902510        0.03225623
        0.35000000        0.02500000       -0.03580707        0.00366858       -3.89506301        0.03599451
        0.36250000        0.02500000       -0.03961228        0.00374984       -4.09582111        0.03978937
        0.37500000        0.02500000       -0.04342525        0.00378119       -4.27606043        0.04358956
        0.38750000        0.02500000       -0.04718932        0.00375616       -4.43032594        0.04733857
        0.40000000        0.02500000       -0.05084348        0.00366913       -4.55312567        0.05097570
        0.41250000        0.02500000       -0.05432365        0.00351560       -4.63914671        0.05443729
        0.42500000        0.02500000       -0.05756413        0.00329244       -4.68350277        0.05765821
        0.43750000        0.02500000       -0.06049917        0.00299815       -4.68200500        0.06057341
        0.45000000        0.02500000       -0.06306461        0.00263299       -4.63144458        0.06311955
        0.46250000        0.02500000       -0.06519967        0.00219919       -4.52987337        0.06523675
        0.47500000        0.02500000       -0.06684861        0.00170102       -4.37686451        0.06687025
        0.48750000        0.02500000       -0.06796240        0.00114487       -4.17373343        0.06797204
        0.50000000        0.02500000       -0.06850034        0.00053932       -3.92371027        0.06850246
        0.51250000        0.02500000       -0.06843159       -0.00010492       -3.63203477        0.06843167
        0.52500000        0.02500000       -0.06773633       -0.00077499       -3.30589179        0.06774076
        0.53750000        0.02500000       -0.06640693       -0.00145645       -2.95430099        0.06642290
        0.55000000        0.02500000       -0.06444831       -0.00213406       -2.58792576        0.06448364
        0.56250000        0.02500000       -0.06187842       -0.00279188       -2.21872038        0.06194137
        0.57500000        0.02500000       -0.05872838       -0.00341362       -1.85948299        0.05882751
        0.58750000        0.02500000       -0.05504225       -0.00398319       -1.52332487        0.05518619
        0.60000000        0.02500000       -0.05087647       -0.00448522       -1.22307247        0.05107380
        0.61250000        0.02500000       -0.04629890       -0.00490570       -0.97063986        0.04655808
        0.62500000        0.02500000       -0.04138747       -0.00523262       -0.77641107        0.04171694
        0.63750000        0.02500000       -0.03622844       -0.00545646       -0.64867648        0.03663704
        0.65000000        0.02500000       -0.03091432       -0.00557077       -0.59316782        0.03141224
        0.66250000        0.02500000       -0.02554148       -0.00557253       -0.61273170        0.02614231
        0.67500000        0.02500000       -0.02020746       -0.00546244       -0.70717255        0.02093274
        0.68750000        0.02500000       -0.01500818       -0.00524498       -0.87328285        0.01589828
        0.70000000        0.02500000       -0.01003508       -0.00492834       -1.10506255        0.01117995
        0.71250000        0.02500000       -0.00537230       -0.00452412       -1.39411198        0.00702348
        0.72500000        0.02500000       -0.00109409       -0.00404684       -1.73016422        0.00419213
        0.73750000        0.02500000        0.00273744       -0.00351330       -2.10172948        0.00445386
        0.75000000        0.02500000        0.00607418       -0.00294175       -2.49676554        0.00674904
        0.76250000        0.02500000        0.00888323       -0.00235097       -2.90332312        0.00918906
        0.77500000        0.02500000        0.01114747       -0.00175937       -3.31015372        0.01128546
        0.78750000        0.02500000        0.01286540       -0.00118414       -3.70720361        0.01291978
        0.80000000        0.02500000        0.01405037       -0.00064046       -4.08596601        0.01406496
        0.81250000        0.02500000        0.01472905       -0.00014093       -4.43969939        0.01472972
        0.82500000        0.02500000        0.01493944        0.00030473       -4.76349788        0.01494255
        0.83750000        0.02500000        0.01472849        0.00069024       -5.05420624        0.01474466
        0.85000000        0.02500000        0.01414937        0.00101271       -5.31024218        0.01418556
        0.86250000        0.02500000        0.01325885        0.00127210       -5.53136289        0.01331974
        0.87500000        0.02500000        0.01211498        0.00147041       -5.71836239        0.01220389
        0.88750000        0.02500000        0.01077534        0.00161075       -5.87275924        0.01089507
        0.90000000        0.02500000        0.00929626        0.00169599       -5.99648876        0.00944970
        0.91250000        0.02500000        0.00773312        0.00172718       -6.09164827        0.00792365
        0.92500000        0.02500000        0.00614219        0.00170178       -6.16025750        0.00637358
        0.93750000        0.02500000        0.00458302        0.00161224       -6.20433000        0.00485833
        0.95000000        0.02500000        0.00312410        0.00144513       -6.22539291        0.00344215
        0.96250000        0.02500000        0.00183893        0.00118511       -6.22681525        0.00218773
        0.97500000        0.02500000        0.00082973        0.00082032       -6.20732593        0.00116678
        0.98750000        0.02500000        0.00013414        0.00039307       -6.18643318        0.00041533
        1.00000000        0.02500000        0.00000000        0.00000000       -6.11873824        0.00000000
        0.00000000        0.03750000        0.00000000        0.00000000       -0.04795799        0.00000000
        0.01250000        0.03750000        0.00012471       -0.00062028        0.00436564        0.00063269
        0.02500000        0.03750000        0.00060746       -0.00100068        0.00564260        0.00117063
        0.03750000        0.03750000        0.00116240       -0.00116194       -0.00142556        0.00164355
        0.05000000        0.03750000        0.00172216       -0.00114074       -0.02750324        0.00206571
        0.06250000        0.03750000        0.00219486       -0.00098291       -0.06867928        0.00240490
        0.07500000        0.03750000        0.00252240       -0.00072962       -0.12438033        0.00262580
        0.08750000        0.03750000        0.00266111       -0.00041457       -0.19292967        0.00269321
        0.10000000        0.03750000        0.00258225       -0.00006313       -0.27295383        0.00258302
        0.11250000        0.03750000        0.00226726        0.00030727       -0.36324650        0.00228799
        0.12500000        0.03750000        0.00170465        0.00068610       -0.46294647        0.00183755
        0.13750000        0.03750000        0.00088684        0.00106858       -0.57155696        0.00138865
        0.15000000        0.03750000       -0.00019220        0.00145428       -0.68892767        0.00146692
        0.16250000        0.03750000       -0.00153873        0.00184576       -0.81519449        0.00240302
        0.17500000        0.03750000       -0.00316026        0.00224716       -0.95070105        0.00387776
        0.18750000        0.03750000       -0.00506584        0.00266293       -1.09590681        0.00572311
        0.20000000        0.03750000       -0.00726568        0.00309673       -1.25129366        0.00789809
        0.21250000        0.03750000       -0.00977029        0.00355062       -1.41727764        0.01039545
        0.22500000        0.03750000       -0.01258917        0.00402455       -1.59412895        0.01321681
        0.23750000        0.03750000       -0.01572938        0.00451601       -1.78190045        0.01636484
        0.25000000        0.03750000       -0.01919401        0.00502005       -1.98036231        0.01983963
        0.26250000        0.03750000       -0.02298066        0.00552933       -2.18894032        0.02363650
        0.27500000        0.03750000       -0.02708019        0.00603430       -2.40665581        0.02774436
        0.28750000        0.03750000       -0.03147561        0.00652350       -2.63206729        0.03214452
        0.30000000        0.03750000       -0.03614126        0.00698387       -2.86321596        0.03680986
        0.31250000        0.03750000       -0.04104235        0.00740111       -3.09757956        0.04170433
        0.32500000        0.03750000       -0.04613477        0.00776011       -3.33204046        0.04678287
        0.33750000        0.03750000       -0.05136534        0.00804541       -3.56287519        0.05199160
        0.35000000        0.03750000       -0.05667241        0.00824177       -3.78577248        0.05726856
        0.36250000        0.03750000       -0.06198680        0.00833468       -3.99588645        0.06254463
        0.37500000        0.03750000       -0.06723316        0.00831097       -4.18793044        0.06774489