 TITLE = "NAVIER STOKES 2D - FD"
 VARIABLES = "X" "Y" "U" "V" "P" "U_MAG"
  ZONE F=POINT, I=          81 , J=           81
    0.00000000    0.00000000    0.00000000    0.00000000    0.00000000    0.00000000
    0.01250000    0.00000000    0.00000000    0.00000000   -0.00204679    0.00000000
    0.02500000    0.00000000    0.00000000    0.00000000   -0.00826590    0.00000000
    0.03750000    0.00000000    0.00000000    0.00000000   -0.01613365    0.00000000
    0.05000000    0.00000000    0.00000000    0.00000000   -0.02304176    0.00000000
    0.06250000    0.00000000    0.00000000    0.00000000   -0.02791934    0.00000000
    0.07500000    0.00000000    0.00000000    0.00000000   -0.03019153    0.00000000
    0.08750000    0.00000000    0.00000000    0.00000000   -0.02963533    0.00000000
    0.10000000    0.00000000    0.00000000    0.00000000   -0.02618245    0.00000000
    0.11250000    0.00000000    0.00000000    0.00000000   -0.01985642    0.00000000
    0.12500000    0.00000000    0.00000000    0.00000000   -0.01072355    0.00000000
    0.13750000    0.00000000    0.00000000    0.00000000    0.00113211    0.00000000
    0.15000000    0.00000000    0.00000000    0.00000000    0.01562592    0.00000000
    0.16250000    0.00000000    0.00000000    0.00000000    0.03268164    0.00000000
    0.17500000    0.00000000    0.00000000    0.00000000    0.05223511    0.00000000
    0.18750000    0.00000000    0.00000000    0.00000000    0.07423538    0.00000000
    0.20000000    0.00000000    0.00000000    0.00000000    0.09864371    0.00000000
    0.21250000    0.00000000    0.00000000    0.00000000    0.12543122    0.00000000
    0.22500000    0.00000000    0.00000000    0.00000000    0.15457655    0.00000000
    0.23750000    0.00000000    0.00000000    0.00000000    0.18606364    0.00000000
    0.25000000    0.00000000    0.00000000    0.00000000    0.21987936    0.00000000
    0.26250000    0.00000000    0.00000000    0.00000000    0.25601167    0.00000000
    0.27500000    0.00000000    0.00000000    0.00000000    0.29444827    0.00000000
    0.28750000    0.00000000    0.00000000    0.00000000    0.33517520    0.00000000
    0.30000000    0.00000000    0.00000000    0.00000000    0.37817583    0.00000000
    0.31250000    0.00000000    0.00000000    0.00000000    0.42343017    0.00000000
    0.32500000    0.00000000    0.00000000    0.00000000    0.47091413    0.00000000
    0.33750000    0.00000000    0.00000000    0.00000000    0.52059876    0.00000000
    0.35000000    0.00000000    0.00000000    0.00000000    0.57244964    0.00000000
    0.36250000    0.00000000    0.00000000    0.00000000    0.62642613    0.00000000
    0.37500000    0.00000000    0.00000000    0.00000000    0.68248079    0.00000000
    0.38750000    0.00000000    0.00000000    0.00000000    0.74055919    0.00000000
    0.40000000    0.00000000    0.00000000    0.00000000    0.80059975    0.00000000
    0.41250000    0.00000000    0.00000000    0.00000000    0.86253287    0.00000000
    0.42500000    0.00000000    0.00000000    0.00000000    0.92627993    0.00000000
    0.43750000    0.00000000    0.00000000    0.00000000    0.99175288    0.00000000
    0.45000000    0.00000000    0.00000000    0.00000000    1.05885460    0.00000000
    0.46250000    0.00000000    0.00000000    0.00000000    1.12747852    0.00000000
    0.47500000    0.00000000    0.00000000    0.00000000    1.19750784    0.00000000
    0.48750000    0.00000000    0.00000000    0.00000000    1.26881532    0.00000000
    0.50000000    0.00000000    0.00000000    0.00000000    1.34126355    0.00000000
    0.51250000    0.00000000    0.00000000    0.00000000    1.41470445    0.00000000
    0.52500000    0.00000000    0.00000000    0.00000000    1.48897937    0.00000000
    0.53750000    0.00000000    0.00000000    0.00000000    1.56392045    0.00000000
    0.55000000    0.00000000    0.00000000    0.00000000    1.63935035    0.00000000
    0.56250000    0.00000000    0.00000000    0.00000000    1.71508031    0.00000000
    0.57500000    0.00000000    0.00000000    0.00000000    1.79091277    0.00000000
    0.58750000    0.00000000    0.00000000    0.00000000    1.86664469    0.00000000
    0.60000000    0.00000000    0.00000000    0.00000000    1.94206408    0.00000000
    0.61250000    0.00000000    0.00000000    0.00000000    2.01695071    0.00000000
    0.62500000    0.00000000    0.00000000    0.00000000    2.09108229    0.00000000
    0.63750000    0.00000000    0.00000000    0.00000000    2.16423107    0.00000000
    0.65000000    0.00000000    0.00000000    0.00000000    2.23616508    0.00000000
    0.66250000    0.00000000    0.00000000    0.00000000    2.30665383    0.00000000
    0.67500000    0.00000000    0.00000000    0.00000000    2.37546466    0.00000000
    0.68750000    0.00000000    0.00000000    0.00000000    2.44236742    0.00000000
    0.70000000    0.00000000    0.00000000    0.00000000    2.50713559    0.00000000
    0.71250000    0.00000000    0.00000000    0.00000000    2.56954623    0.00000000
    0.72500000    0.00000000    0.00000000    0.00000000    2.62938395    0.00000000
    0.73750000    0.00000000    0.00000000    0.00000000    2.68643950    0.00000000
    0.75000000    0.00000000    0.00000000    0.00000000    2.74051348    0.00000000
    0.76250000    0.00000000    0.00000000    0.00000000    2.79141522    0.00000000
    0.77500000    0.00000000    0.00000000    0.00000000    2.83896505    0.00000000
    0.78750000    0.00000000    0.00000000    0.00000000    2.88299381    0.00000000
    0.80000000    0.00000000    0.00000000    0.00000000    2.92334372    0.00000000
    0.81250000    0.00000000    0.00000000    0.00000000    2.95986852    0.00000000
    0.82500000    0.00000000    0.00000000    0.00000000    2.99243371    0.00000000
    0.83750000    0.00000000    0.00000000    0.00000000    3.02091778    0.00000000
    0.85000000    0.00000000    0.00000000    0.00000000    3.04521346    0.00000000
    0.86250000    0.00000000    0.00000000    0.00000000    3.06523145    0.00000000
    0.87500000    0.00000000    0.00000000    0.00000000    3.08090520    0.00000000
    0.88750000    0.00000000    0.00000000    0.00000000    3.09220008    0.00000000
    0.90000000    0.00000000    0.00000000    0.00000000    3.09912582    0.00000000
    0.91250000    0.00000000    0.00000000    0.00000000    3.10175722    0.00000000
    0.92500000    0.00000000    0.00000000    0.00000000    3.10026322    0.00000000
    0.93750000    0.00000000    0.00000000    0.00000000    3.09496163    0.00000000
    0.95000000    0.00000000    0.00000000    0.00000000    3.08639171    0.00000000
    0.96250000    0.00000000    0.00000000    0.00000000    3.07555412    0.00000000
    0.97500000    0.00000000    0.00000000    0.00000000    3.06409979    0.00000000
    0.98750000    0.00000000    0.00000000    0.00000000    3.05557564    0.00000000
    1.00000000    0.00000000    0.00000000    0.00000000    3.05331648    0.00000000
    0.00000000    0.01250000    0.00000000    0.00000000    0.00203331    0.00000000
    0.01250000    0.01250000    0.00000014   -0.00000010   -0.00002003    0.00000017
    0.02500000    0.01250000   -0.00002348    0.00000822   -0.00312942    0.00002488
    0.03750000    0.01250000   -0.00007238    0.00001790   -0.00721147    0.00007456
    0.05000000    0.01250000   -0.00014679    0.00002579   -0.01051073    0.00014903
    0.06250000    0.01250000   -0.00024206    0.00003193   -0.01244780    0.00024416
    0.07500000    0.01250000   -0.00035394    0.00003646   -0.01245289    0.00035582
    0.08750000    0.01250000   -0.00047823    0.00003968   -0.01024159    0.00047987
    0.10000000    0.01250000   -0.00061141    0.00004185   -0.00563610    0.00061284
    0.11250000    0.01250000   -0.00075063    0.00004323    0.00144524    0.00075187
    0.12500000    0.01250000   -0.00089366    0.00004402    0.01103131    0.00089474
    0.13750000    0.01250000   -0.00103883    0.00004438    0.02311769    0.00103978
    0.15000000    0.01250000   -0.00118493    0.00004444    0.03768287    0.00118576
    0.16250000    0.01250000   -0.00133107    0.00004431    0.05469824    0.00133181
    0.17500000    0.01250000   -0.00147666    0.00004404    0.07413421    0.00147732
    0.18750000    0.01250000   -0.00162127    0.00004368    0.09596334    0.00162185
    0.20000000    0.01250000   -0.00176459    0.00004325    0.12016185    0.00176512
    0.21250000    0.01250000   -0.00190639    0.00004278    0.14670975    0.00190687
    0.22500000    0.01250000   -0.00204650    0.00004226    0.17559017    0.00204693
    0.23750000    0.01250000   -0.00218474    0.00004170    0.20678845    0.00218513
    0.25000000    0.01250000   -0.00232095    0.00004109    0.24029112    0.00232131
    0.26250000    0.01250000   -0.00245496    0.00004044    0.27608471    0.00245529
    0.27500000    0.01250000   -0.00258659    0.00003973    0.31415477    0.00258689
    0.28750000    0.01250000   -0.00271564    0.00003895    0.35448503    0.00271592
    0.30000000    0.01250000   -0.00284191    0.00003812    0.39705653    0.00284217
    0.31250000    0.01250000   -0.00296518    0.00003721    0.44184683    0.00296541
    0.32500000    0.01250000   -0.00308519    0.00003623    0.48882943    0.00308540
    0.33750000    0.01250000   -0.00320171    0.00003517    0.53797306    0.00320190
    0.35000000    0.01250000   -0.00331445    0.00003402    0.58924097    0.00331463
    0.36250000    0.01250000   -0.00342314    0.00003278    0.64259042    0.00342330
    0.37500000    0.01250000   -0.00352749    0.00003145    0.69797224    0.00352763
    0.38750000    0.01250000   -0.00362718    0.00003002    0.75533042    0.00362731
    0.40000000    0.01250000   -0.00372191    0.00002848    0.81460166    0.00372202
    0.41250000    0.01250000   -0.00381134    0.00002685    0.87571457    0.00381143
    0.42500000    0.01250000   -0.00389513    0.00002510    0.93858904    0.00389521
    0.43750000    0.01250000   -0.00397295    0.00002324    1.00313617    0.00397302
    0.45000000    0.01250000   -0.00404443    0.00002127    1.06925822    0.00404449
    0.46250000    0.01250000   -0.00410924    0.00001919    1.13684802    0.00410928
    0.47500000    0.01250000   -0.00416700    0.00001699    1.20578845    0.00416704
    0.48750000    0.01250000   -0.00421737    0.00001468    1.27595260    0.00421740
    0.50000000    0.01250000   -0.00426000    0.00001226    1.34720373    0.00426002
    0.51250000    0.01250000   -0.00429453    0.00000973    1.41939492    0.00429455
    0.52500000    0.01250000   -0.00432064    0.00000709    1.49236942    0.00432065
    0.53750000    0.01250000   -0.00433800    0.00000434    1.56596151    0.00433801
    0.55000000    0.01250000   -0.00434630    0.00000150    1.63999553    0.00434630
    0.56250000    0.01250000   -0.00434524   -0.00000143    1.71428603    0.00434524
    0.57500000    0.01250000   -0.00433457   -0.00000444    1.78864078    0.00433457
    0.58750000    0.01250000   -0.00431404   -0.00000753    1.86286056    0.00431405
    0.60000000    0.01250000   -0.00428345   -0.00001067    1.93673704    0.00428347
    0.61250000    0.01250000   -0.00424262   -0.00001388    2.01005684    0.00424265
    0.62500000    0.01250000   -0.00419142   -0.00001711    2.08260337    0.00419145
    0.63750000    0.01250000   -0.00412973   -0.00002038    2.15415408    0.00412979
    0.65000000    0.01250000   -0.00405752   -0.00002365    2.22448531    0.00405759
    0.66250000    0.01250000   -0.00397477   -0.00002693    2.29337295    0.00397487
    0.67500000    0.01250000   -0.00388152   -0.00003018    2.36059162    0.00388164
    0.68750000    0.01250000   -0.00377786   -0.00003339    2.42591968    0.00377801
    0.70000000    0.01250000   -0.00366392   -0.00003656    2.48913754    0.00366411
    0.71250000    0.01250000   -0.00353991   -0.00003965    2.55003113    0.00354013
    0.72500000    0.01250000   -0.00340605   -0.00004266    2.60839270    0.00340631
    0.73750000    0.01250000   -0.00326265   -0.00004556    2.66402180    0.00326297
    0.75000000    0.01250000   -0.00311006   -0.00004835    2.71672777    0.00311044
    0.76250000    0.01250000   -0.00294871   -0.00005099    2.76632944    0.00294915
    0.77500000    0.01250000   -0.00277906   -0.00005347    2.81265815    0.00277957
    0.78750000    0.01250000   -0.00260167   -0.00005576    2.85555709    0.00260227
    0.80000000    0.01250000   -0.00241720   -0.00005784    2.89488444    0.00241789
    0.81250000    0.01250000   -0.00222640   -0.00005967    2.93051315    0.00222720
    0.82500000    0.01250000   -0.00203018   -0.00006119    2.96233444    0.00203110
    0.83750000    0.01250000   -0.00182962   -0.00006234    2.99025895    0.00183069
    0.85000000    0.01250000   -0.00162607   -0.00006304    3.01422158    0.00162729
    0.86250000    0.01250000   -0.00142115   -0.00006319    3.03418544    0.00142255
    0.87500000    0.01250000   -0.00121687   -0.00006266    3.05014977    0.00121848
    0.88750000    0.01250000   -0.00101570   -0.00006127    3.06215888    0.00101754
    0.90000000    0.01250000   -0.00082066   -0.00005884    3.07031588    0.00082277
    0.91250000    0.01250000   -0.00063539   -0.00005513    3.07480115    0.00063778
    0.92500000    0.01250000   -0.00046423   -0.00004989    3.07589418    0.00046690
    0.93750000    0.01250000   -0.00031215   -0.00004284    3.07401945    0.00031507
    0.95000000    0.01250000   -0.00018477   -0.00003370    3.06975238    0.00018782
    0.96250000    0.01250000   -0.00008753   -0.00002241    3.06402212    0.00009035
    0.97500000    0.01250000   -0.00002579   -0.00000916    3.05777293    0.00002737
    0.98750000    0.01250000    0.00000163    0.00000167    3.05328991    0.00000233
    1.00000000    0.01250000    0.00000000    0.00000000    3.05105750    0.00000000
    0.00000000    0.02500000    0.00000000    0.00000000    0.00830839    0.00000000
    0.01250000    0.02500000   -0.00000827    0.00002354    0.00309185    0.00002495
    0.02500000    0.02500000   -0.00006728    0.00006680   -0.00002299    0.00009481
    0.03750000    0.02500000   -0.00016709    0.00011398   -0.00397816    0.00020226
    0.05000000    0.02500000   -0.00030867    0.00015557   -0.00676983    0.00034566
    0.06250000    0.02500000   -0.00048481    0.00018957   -0.00817361    0.00052055
    0.07500000    0.02500000   -0.00068911    0.00021580   -0.00766782    0.00072210
    0.08750000    0.02500000   -0.00091494    0.00023512   -0.00502312    0.00094467
    0.10000000    0.02500000   -0.00115659    0.00024868   -0.00007193    0.00118302
    0.11250000    0.02500000   -0.00140926    0.00025765    0.00726794    0.00143261
    0.12500000    0.02500000   -0.00166909    0.00026308    0.01703450    0.00168970
    0.13750000    0.02500000   -0.00193312    0.00026588    0.02923508    0.00195132
    0.15000000    0.02500000   -0.00219913    0.00026678    0.04386053    0.00221525
    0.16250000    0.02500000   -0.00246546    0.00026633    0.06089340    0.00247980
    0.17500000    0.02500000   -0.00273094    0.00026493    0.08031350    0.00274376
    0.18750000    0.02500000   -0.00299471    0.00026286    0.10210092    0.00300623
    0.20000000    0.02500000   -0.00325616    0.00026030    0.12623754    0.00326655
    0.21250000    0.02500000   -0.00351479    0.00025736    0.15270741    0.00352420
    0.22500000    0.02500000   -0.00377021    0.00025410    0.18149647    0.00377877
    0.23750000    0.02500000   -0.00402208    0.00025053    0.21259191    0.00402988
    0.25000000    0.02500000   -0.00427007    0.00024665    0.24598133    0.00427719
    0.26250000    0.02500000   -0.00451383    0.00024245    0.28165190    0.00452034
    0.27500000    0.02500000   -0.00475302    0.00023791    0.31958950    0.00475897
    0.28750000    0.02500000   -0.00498728    0.00023299    0.35977788    0.00499272
    0.30000000    0.02500000   -0.00521622    0.00022769    0.40219800    0.00522119
    0.31250000    0.02500000   -0.00543943    0.00022195    0.44682728    0.00544396
    0.32500000    0.02500000   -0.00565647    0.00021577    0.49363902    0.00566059
    0.33750000    0.02500000   -0.00586689    0.00020912    0.54260169    0.00587061
    0.35000000    0.02500000   -0.00607020    0.00020196    0.59367835    0.00607356
    0.36250000    0.02500000   -0.00626590    0.00019428    0.64682608    0.00626891
    0.37500000    0.02500000   -0.00645347    0.00018605    0.70199557    0.00645615
    0.38750000    0.02500000   -0.00663238    0.00017725    0.75913067    0.00663474
    0.40000000    0.02500000   -0.00680205    0.00016786    0.81816786    0.00680412
    0.41250000    0.02500000   -0.00696191    0.00015787    0.87903552    0.00696370
    0.42500000    0.02500000   -0.00711138    0.00014726    0.94165349    0.00711290
    0.43750000    0.02500000   -0.00724984    0.00013602    1.00593298    0.00725112
    0.45000000    0.02500000   -0.00737670    0.00012414    1.07177631    0.00737775
    0.46250000    0.02500000   -0.00749134    0.00011161    1.13907627    0.00749217
    0.47500000    0.02500000   -0.00759314    0.00009844    1.20771592    0.00759378
    0.48750000    0.02500000   -0.00768149    0.00008463    1.27756860    0.00768196
    0.50000000    0.02500000   -0.00775578    0.00007018    1.34849777    0.00775610
    0.51250000    0.02500000   -0.00781543    0.00005512    1.42035686    0.00781562
    0.52500000    0.02500000   -0.00785985    0.00003945    1.49298979    0.00785994
    0.53750000    0.02500000   -0.00788848    0.00002320    1.56623116    0.00788852
    0.55000000    0.02500000   -0.00790081    0.00000642    1.63990567    0.00790081
    0.56250000    0.02500000   -0.00789634   -0.00001087    1.71382905    0.00789634
    0.57500000    0.02500000   -0.00787462   -0.00002862    1.78780978    0.00787467
    0.58750000    0.02500000   -0.00783525   -0.00004677    1.86164854    0.00783539
    0.60000000    0.02500000   -0.00777788   -0.00006527    1.93513836    0.00777815
    0.61250000    0.02500000   -0.00770221   -0.00008406    2.00806758    0.00770267
    0.62500000    0.02500000   -0.00760802   -0.00010306    2.08021970    0.00760872
    0.63750000    0.02500000   -0.00749515   -0.00012219    2.15137381    0.00749615
    0.65000000    0.02500000   -0.00736352   -0.00014139    2.22130780    0.00736488
    0.66250000    0.02500000   -0.00721312   -0.00016055    2.28979809    0.00721491
    0.67500000    0.02500000   -0.00704403   -0.00017960    2.35662145    0.00704632
    0.68750000    0.02500000   -0.00685641   -0.00019845    2.42155721    0.00685929
    0.70000000    0.02500000   -0.00665052   -0.00021699    2.48438749    0.00665406
    0.71250000    0.02500000   -0.00642670   -0.00023514    2.54489994    0.00643100
    0.72500000    0.02500000   -0.00618538   -0.00025279    2.60288830    0.00619054
    0.73750000    0.02500000   -0.00592709   -0.00026985    2.65815445    0.00593323
    0.75000000    0.02500000   -0.00565247   -0.00028621    2.71050951    0.00565971
    0.76250000    0.02500000   -0.00536225   -0.00030176    2.75977531    0.00537073
    0.77500000    0.02500000   -0.00505729   -0.00031636    2.80578583    0.00506717
    0.78750000    0.02500000   -0.00473859   -0.00032986    2.84838838    0.00475005
    0.80000000    0.02500000   -0.00440731   -0.00034209    2.88744547    0.00442056
    0.81250000    0.02500000   -0.00406482   -0.00035279    2.92283616    0.00408010
    0.82500000    0.02500000   -0.00371276   -0.00036168    2.95445870    0.00373033
    0.83750000    0.02500000   -0.00335309   -0.00036836    2.98223291    0.00337326
    0.85000000    0.02500000   -0.00298820   -0.00037235    3.00610444    0.00301131
    0.86250000    0.02500000   -0.00262101   -0.00037303    3.02604927    0.00264742
    0.87500000    0.02500000   -0.00225508   -0.00036963    3.04208098    0.00228517
    0.88750000    0.02500000   -0.00189474   -0.00036126    3.05425914    0.00192887
    0.90000000    0.02500000   -0.00154522   -0.00034684    3.06270100    0.00158367
    0.91250000    0.02500000   -0.00121272   -0.00032522    3.06759742    0.00125557
    0.92500000    0.02500000   -0.00090446   -0.00029516    3.06922748    0.00095141
    0.93750000    0.02500000   -0.00062857   -0.00025560    3.06800105    0.00067855
    0.95000000    0.02500000   -0.00039391   -0.00020590    3.06442381    0.00044448
    0.96250000    0.02500000   -0.00020864   -0.00014693    3.05935793    0.00025519
    0.97500000    0.02500000   -0.00008114   -0.00008231    3.05330160    0.00011558
    0.98750000    0.02500000   -0.00000892   -0.00002567    3.04881788    0.00002717
    1.00000000    0.02500000    0.00000000    0.00000000    3.04267824    0.00000000
    0.00000000    0.03750000    0.00000000    0.00000000    0.01631588    0.00000000
    0.01250000    0.03750000   -0.00001824    0.00007302    0.00716741    0.00007526
    0.02500000    0.03750000   -0.00011603    0.00016701    0.00390016    0.00020336
    0.03750000    0.03750000   -0.00026588    0.00026282   -0.00007611    0.00037386
    0.05000000    0.03750000   -0.00046872    0.00034753   -0.00234375    0.00058350
    0.06250000    0.03750000   -0.00071495    0.00041757   -0.00313607    0.00082796
    0.07500000    0.03750000   -0.00099701    0.00047248   -0.00201075    0.00110329
    0.08750000    0.03750000   -0.00130688    0.00051362    0.00117794    0.00140418
    0.10000000    0.03750000   -0.00163755    0.00054299    0.00657402    0.00172523
    0.11250000    0.03750000   -0.00198298    0.00056280    0.01425335    0.00206130
    0.12500000    0.03750000   -0.00233824    0.00057511    0.02426159    0.00240793
    0.13750000    0.03750000   -0.00269942    0.00058171    0.03661869    0.00276139
    0.15000000    0.03750000   -0.00306351    0.00058410    0.05132975    0.00311870
    0.16250000    0.03750000   -0.00342825    0.00058343    0.06839094    0.00347754
    0.17500000    0.03750000   -0.00379197    0.00058057    0.08779399    0.00383615
    0.18750000    0.03750000   -0.00415341    0.00057611    0.10952867    0.00419318
    0.20000000    0.03750000   -0.00451166    0.00057048    0.13358441    0.00454758
    0.21250000    0.03750000   -0.00486596    0.00056391    0.15995091    0.00489853
    0.22500000    0.03750000   -0.00521573    0.00055654    0.18861811    0.00524534
    0.23750000    0.03750000   -0.00556043    0.00054844    0.21957593    0.00558741
    0.25000000    0.03750000   -0.00589957    0.00053963    0.25281379    0.00592420
    0.26250000    0.03750000   -0.00623265    0.00053007    0.28831999    0.00625515
    0.27500000    0.03750000   -0.00655918    0.00051974    0.32608105    0.00657974
    0.28750000    0.03750000   -0.00687865    0.00050858    0.36608113    0.00689742
    0.30000000    0.03750000   -0.00719050    0.00049655    0.40830135    0.00720763
    0.31250000    0.03750000   -0.00749419    0.00048360    0.45271920    0.00750978
    0.32500000    0.03750000   -0.00778911    0.00046966    0.49930794    0.00780325
    0.33750000    0.03750000   -0.00807464    0.00045469    0.54803595    0.00808743
    0.35000000    0.03750000   -0.00835013    0.00043864    0.59886618    0.00836164
    0.36250000    0.03750000   -0.00861491    0.00042146    0.65175568    0.00862521
    0.37500000    0.03750000   -0.00886828    0.00040311    0.70665514    0.00887744
    0.38750000    0.03750000   -0.00910952    0.00038353    0.76350844    0.00911759
    0.40000000    0.03750000   -0.00933789    0.00036271    0.82225196    0.00934493
    0.41250000    0.03750000   -0.00955262    0.00034059    0.88281402    0.00955869
    0.42500000    0.03750000   -0.00975293    0.00031716    0.94511454    0.00975809
    0.43750000    0.03750000   -0.00993804    0.00029239    1.00906492    0.00994234
    0.45000000    0.03750000   -0.01010714    0.00026627    1.07456759    0.01011065
    0.46250000    0.03750000   -0.01025944    0.00023878    1.14151543    0.01026222
    0.47500000    0.03750000   -0.01039412    0.00020994    1.20979175    0.01039624
    0.48750000    0.03750000   -0.01051039    0.00017974    1.27927018    0.01051193
    0.50000000    0.03750000   -0.01060747    0.00014821    1.34981447    0.01060850
    0.51250000    0.03750000   -0.01068458    0.00011539    1.42127859    0.01068520
    0.52500000    0.03750000   -0.01074098    0.00008130    1.49350700    0.01074129
    0.53750000    0.03750000   -0.01077597    0.00004602    1.56633438    0.01077606
    0.55000000    0.03750000   -0.01078885    0.00000961    1.63958612    0.01078886
    0.56250000    0.03750000   -0.01077902   -0.00002785    1.71307907    0.01077905
    0.57500000    0.03750000   -0.01074589   -0.00006625    1.78662191    0.01074609
    0.58750000    0.03750000   -0.01068896   -0.00010550    1.86001579    0.01068948
    0.60000000    0.03750000   -0.01060778   -0.00014546    1.93305529    0.01060878
    0.61250000    0.03750000   -0.01050199   -0.00018600    2.00552926    0.01050364
    0.62500000    0.03750000   -0.01037133   -0.00022697    2.07722198    0.01037381
    0.63750000    0.03750000   -0.01021559   -0.00026822    2.14791408    0.01021911
    0.65000000    0.03750000   -0.01003469   -0.00030956    2.21738411    0.01003946
    0.66250000    0.03750000   -0.00982865   -0.00035083    2.28540988    0.00983491
    0.67500000    0.03750000   -0.00959758   -0.00039183    2.35176947    0.00960558
    0.68750000    0.03750000   -0.00934173   -0.00043237    2.41624340    0.00935173
    0.70000000    0.03750000   -0.00906145   -0.00047226    2.47861555    0.00907375
    0.71250000    0.03750000   -0.00875720   -0.00051130    2.53867500    0.00877211
    0.72500000    0.03750000   -0.00842958   -0.00054926    2.59621760    0.00844745
    0.73750000    0.03750000   -0.00807931   -0.00058595    2.65104720    0.00810053
    0.75000000    0.03750000   -0.00770723   -0.00062113    2.70297761    0.00773222
    0.76250000    0.03750000   -0.00731436   -0.00065454    2.75183363    0.00734359
    0.77500000    0.03750000   -0.00690186   -0.00068591    2.79745311    0.00693586
    0.78750000    0.03750000   -0.00647107   -0.00071491    2.83968810    0.00651044
    0.80000000    0.03750000   -0.00602357   -0.00074111    2.87840708    0.00606899
    0.81250000    0.03750000   -0.00556123   -0.00076402    2.91349671    0.00561347
    0.82500000    0.03750000   -0.00508626   -0.00078297    2.94486464    0.00514617
    0.83750000    0.03750000   -0.00460131   -0.00079714    2.97244240    0.00466984
    0.85000000    0.03750000   -0.00410958   -0.00080548    2.99618952    0.00418777
    0.86250000    0.03750000   -0.00361497   -0.00080669    3.01609836    0.00370388
    0.87500000    0.03750000   -0.00312218   -0.00079921    3.03220035    0.00322285
    0.88750000    0.03750000   -0.00263688   -0.00078117    3.04457356    0.00275015
    0.90000000    0.03750000   -0.00216579   -0.00075049    3.05335126    0.00229214
    0.91250000    0.03750000   -0.00171682   -0.00070489    3.05873409    0.00185589
    0.92500000    0.03750000   -0.00129898   -0.00064216    3.06099407    0.00144904
    0.93750000    0.03750000   -0.00092219   -0.00056044    3.06051155    0.00107914
    0.95000000    0.03750000   -0.00059719   -0.00045898    3.05768829    0.00075319
    0.96250000    0.03750000   -0.00033357   -0.00033967    3.05328061    0.00047607
    0.97500000    0.03750000   -0.00014254   -0.00020894    3.04721471    0.00025293
    0.98750000    0.03750000   -0.00002150   -0.00008601    3.04253696    0.00008865
    1.00000000    0.03750000    0.00000000    0.00000000    3.03149240    0.00000000
    0.00000000    0.05000000    0.00000000    0.00000000    0.02344185    0.00000000
    0.01250000    0.05000000   -0.00002668    0.00014923    0.01043452    0.00015160
    0.02500000    0.05000000   -0.00016053    0.00031087    0.00663177    0.00034987
    0.03750000    0.05000000   -0.00035631    0.00046672    0.00209843    0.00058719
    0.05000000    0.05000000   -0.00061409    0.00060331   -0.00016776    0.00086087
    0.06250000    0.05000000   -0.00092148    0.00071659   -0.00079641    0.00116732
    0.07500000    0.05000000   -0.00126989    0.00080614    0.00060000    0.00150415
    0.08750000    0.05000000   -0.00165026    0.00087393    0.00407750    0.00186738
    0.10000000    0.05000000   -0.00205478    0.00092291    0.00974208    0.00225252
    0.11250000    0.05000000   -0.00247660    0.00095637    0.01764704    0.00265484
    0.12500000    0.05000000   -0.00291008    0.00097749    0.02782950    0.00306986
    0.13750000    0.05000000   -0.00335070    0.00098909    0.04030872    0.00349364
    0.15000000    0.05000000   -0.00379490    0.00099354    0.05509372    0.00392280
    0.16250000    0.05000000   -0.00423995    0.00099271    0.07218644    0.00435461
    0.17500000    0.05000000   -0.00468379    0.00098802    0.09158498    0.00478686
    0.18750000    0.05000000   -0.00512486    0.00098049    0.11328531    0.00521781
    0.20000000    0.05000000   -0.00556196    0.00097081    0.13728219    0.00564605
    0.21250000    0.05000000   -0.00599414    0.00095942    0.16356981    0.00607044
    0.22500000    0.05000000   -0.00642061    0.00094658    0.19214178    0.00649001
    0.23750000    0.05000000   -0.00684067    0.00093240    0.22299088    0.00690392
    0.25000000    0.05000000   -0.00725367    0.00091693    0.25610874    0.00731140
    0.26250000    0.05000000   -0.00765899    0.00090016    0.29148541    0.00771171
    0.27500000    0.05000000   -0.00805600    0.00088203    0.32910873    0.00810415
    0.28750000    0.05000000   -0.00844406    0.00086248    0.36896391    0.00848799
    0.30000000    0.05000000   -0.00882248    0.00084143    0.41103294    0.00886251
    0.31250000    0.05000000   -0.00919058    0.00081881    0.45529405    0.00922699
    0.32500000    0.05000000   -0.00954765    0.00079452    0.50172111    0.00958065