 TITLE = "NAVIER STOKES 2D - FD"
 VARIABLES = "X" "Y" "U" "V" "P" "U_MAG"
  ZONE F=POINT, I=          81 , J=           81
    0.00000000    0.00000000    0.00000000    0.00000000    0.00000000    0.00000000
    0.01250000    0.00000000    0.00000000    0.00000000   -0.00386024    0.00000000
    0.02500000    0.00000000    0.00000000    0.00000000   -0.01170330    0.00000000
    0.03750000    0.00000000    0.00000000    0.00000000   -0.02005774    0.00000000
    0.05000000    0.00000000    0.00000000    0.00000000   -0.02590520    0.00000000
    0.06250000    0.00000000    0.00000000    0.00000000   -0.02857366    0.00000000
    0.07500000    0.00000000    0.00000000    0.00000000   -0.02795383    0.00000000
    0.08750000    0.00000000    0.00000000    0.00000000   -0.02424064    0.00000000
    0.10000000    0.00000000    0.00000000    0.00000000   -0.01764589    0.00000000
    0.11250000    0.00000000    0.00000000    0.00000000   -0.00834457    0.00000000
    0.12500000    0.00000000    0.00000000    0.00000000    0.00354115    0.00000000
    0.13750000    0.00000000    0.00000000    0.00000000    0.01793166    0.00000000
    0.15000000    0.00000000    0.00000000    0.00000000    0.03477725    0.00000000
    0.16250000    0.00000000    0.00000000    0.00000000    0.05404280    0.00000000
    0.17500000    0.00000000    0.00000000    0.00000000    0.07570049    0.00000000
    0.18750000    0.00000000    0.00000000    0.00000000    0.09972664    0.00000000
    0.20000000    0.00000000    0.00000000    0.00000000    0.12609673    0.00000000
    0.21250000    0.00000000    0.00000000    0.00000000    0.15478444    0.00000000
    0.22500000    0.00000000    0.00000000    0.00000000    0.18576241    0.00000000
    0.23750000    0.00000000    0.00000000    0.00000000    0.21899987    0.00000000
    0.25000000    0.00000000    0.00000000    0.00000000    0.25446220    0.00000000
    0.26250000    0.00000000    0.00000000    0.00000000    0.29211277    0.00000000
    0.27500000    0.00000000    0.00000000    0.00000000    0.33191189    0.00000000
    0.28750000    0.00000000    0.00000000    0.00000000    0.37381560    0.00000000
    0.30000000    0.00000000    0.00000000    0.00000000    0.41777649    0.00000000
    0.31250000    0.00000000    0.00000000    0.00000000    0.46374304    0.00000000
    0.32500000    0.00000000    0.00000000    0.00000000    0.51165932    0.00000000
    0.33750000    0.00000000    0.00000000    0.00000000    0.56146753    0.00000000
    0.35000000    0.00000000    0.00000000    0.00000000    0.61310727    0.00000000
    0.36250000    0.00000000    0.00000000    0.00000000    0.66651047    0.00000000
    0.37500000    0.00000000    0.00000000    0.00000000    0.72160247    0.00000000
    0.38750000    0.00000000    0.00000000    0.00000000    0.77830877    0.00000000
    0.40000000    0.00000000    0.00000000    0.00000000    0.83655317    0.00000000
    0.41250000    0.00000000    0.00000000    0.00000000    0.89624944    0.00000000
    0.42500000    0.00000000    0.00000000    0.00000000    0.95730511    0.00000000
    0.43750000    0.00000000    0.00000000    0.00000000    1.01962988    0.00000000
    0.45000000    0.00000000    0.00000000    0.00000000    1.08312798    0.00000000
    0.46250000    0.00000000    0.00000000    0.00000000    1.14769244    0.00000000
    0.47500000    0.00000000    0.00000000    0.00000000    1.21321652    0.00000000
    0.48750000    0.00000000    0.00000000    0.00000000    1.27959273    0.00000000
    0.50000000    0.00000000    0.00000000    0.00000000    1.34670163    0.00000000
    0.51250000    0.00000000    0.00000000    0.00000000    1.41442226    0.00000000
    0.52500000    0.00000000    0.00000000    0.00000000    1.48263365    0.00000000
    0.53750000    0.00000000    0.00000000    0.00000000    1.55120356    0.00000000
    0.55000000    0.00000000    0.00000000    0.00000000    1.62000036    0.00000000
    0.56250000    0.00000000    0.00000000    0.00000000    1.68888945    0.00000000
    0.57500000    0.00000000    0.00000000    0.00000000    1.75772821    0.00000000
    0.58750000    0.00000000    0.00000000    0.00000000    1.82637656    0.00000000
    0.60000000    0.00000000    0.00000000    0.00000000    1.89468637    0.00000000
    0.61250000    0.00000000    0.00000000    0.00000000    1.96250991    0.00000000
    0.62500000    0.00000000    0.00000000    0.00000000    2.02969682    0.00000000
    0.63750000    0.00000000    0.00000000    0.00000000    2.09609239    0.00000000
    0.65000000    0.00000000    0.00000000    0.00000000    2.16154439    0.00000000
    0.66250000    0.00000000    0.00000000    0.00000000    2.22589545    0.00000000
    0.67500000    0.00000000    0.00000000    0.00000000    2.28899160    0.00000000
    0.68750000    0.00000000    0.00000000    0.00000000    2.35067489    0.00000000
    0.70000000    0.00000000    0.00000000    0.00000000    2.41079134    0.00000000
    0.71250000    0.00000000    0.00000000    0.00000000    2.46918527    0.00000000
    0.72500000    0.00000000    0.00000000    0.00000000    2.52570434    0.00000000
    0.73750000    0.00000000    0.00000000    0.00000000    2.58019683    0.00000000
    0.75000000    0.00000000    0.00000000    0.00000000    2.63251523    0.00000000
    0.76250000    0.00000000    0.00000000    0.00000000    2.68251443    0.00000000
    0.77500000    0.00000000    0.00000000    0.00000000    2.73005386    0.00000000
    0.78750000    0.00000000    0.00000000    0.00000000    2.77499697    0.00000000
    0.80000000    0.00000000    0.00000000    0.00000000    2.81721315    0.00000000
    0.81250000    0.00000000    0.00000000    0.00000000    2.85657657    0.00000000
    0.82500000    0.00000000    0.00000000    0.00000000    2.89296783    0.00000000
    0.83750000    0.00000000    0.00000000    0.00000000    2.92627253    0.00000000
    0.85000000    0.00000000    0.00000000    0.00000000    2.95638217    0.00000000
    0.86250000    0.00000000    0.00000000    0.00000000    2.98318972    0.00000000
    0.87500000    0.00000000    0.00000000    0.00000000    3.00658721    0.00000000
    0.88750000    0.00000000    0.00000000    0.00000000    3.02645582    0.00000000
    0.90000000    0.00000000    0.00000000    0.00000000    3.04265689    0.00000000
    0.91250000    0.00000000    0.00000000    0.00000000    3.05501693    0.00000000
    0.92500000    0.00000000    0.00000000    0.00000000    3.06332146    0.00000000
    0.93750000    0.00000000    0.00000000    0.00000000    3.06733578    0.00000000
    0.95000000    0.00000000    0.00000000    0.00000000    3.06686187    0.00000000
    0.96250000    0.00000000    0.00000000    0.00000000    3.06203720    0.00000000
    0.97500000    0.00000000    0.00000000    0.00000000    3.05359729    0.00000000
    0.98750000    0.00000000    0.00000000    0.00000000    3.04492789    0.00000000
    1.00000000    0.00000000    0.00000000    0.00000000    3.03999519    0.00000000
    0.00000000    0.01250000    0.00000000    0.00000000    0.00384324    0.00000000
    0.01250000    0.01250000   -0.00000336    0.00000339   -0.00002181    0.00000477
    0.02500000    0.01250000   -0.00004393    0.00001460   -0.00366492    0.00004630
    0.03750000    0.01250000   -0.00011310    0.00002516   -0.00797171    0.00011586
    0.05000000    0.01250000   -0.00020660    0.00003184   -0.01065523    0.00020904
    0.06250000    0.01250000   -0.00031516    0.00003571   -0.01136114    0.00031718
    0.07500000    0.01250000   -0.00043256    0.00003762   -0.00965879    0.00043419
    0.08750000    0.01250000   -0.00055424    0.00003838   -0.00545557    0.00055557
    0.10000000    0.01250000   -0.00067750    0.00003849    0.00128005    0.00067859
    0.11250000    0.01250000   -0.00080077    0.00003828    0.01052626    0.00080168
    0.12500000    0.01250000   -0.00092321    0.00003791    0.02225272    0.00092399
    0.13750000    0.01250000   -0.00104437    0.00003745    0.03642634    0.00104504
    0.15000000    0.01250000   -0.00116396    0.00003693    0.05301804    0.00116454
    0.16250000    0.01250000   -0.00128179    0.00003638    0.07200248    0.00128231
    0.17500000    0.01250000   -0.00139770    0.00003578    0.09335504    0.00139816
    0.18750000    0.01250000   -0.00151153    0.00003513    0.11705172    0.00151194
    0.20000000    0.01250000   -0.00162312    0.00003444    0.14306847    0.00162348
    0.21250000    0.01250000   -0.00173230    0.00003370    0.17137882    0.00173263
    0.22500000    0.01250000   -0.00183892    0.00003291    0.20195410    0.00183921
    0.23750000    0.01250000   -0.00194281    0.00003207    0.23476384    0.00194308
    0.25000000    0.01250000   -0.00204382    0.00003118    0.26977430    0.00204405
    0.26250000    0.01250000   -0.00214177    0.00003024    0.30694843    0.00214199
    0.27500000    0.01250000   -0.00223653    0.00002925    0.34624665    0.00223672
    0.28750000    0.01250000   -0.00232791    0.00002821    0.38762558    0.00232808
    0.30000000    0.01250000   -0.00241578    0.00002713    0.43103751    0.00241593
    0.31250000    0.01250000   -0.00249997    0.00002600    0.47643143    0.00250011
    0.32500000    0.01250000   -0.00258035    0.00002481    0.52375323    0.00258047
    0.33750000    0.01250000   -0.00265677    0.00002358    0.57294531    0.00265687
    0.35000000    0.01250000   -0.00272907    0.00002231    0.62394589    0.00272917
    0.36250000    0.01250000   -0.00279713    0.00002099    0.67668744    0.00279721
    0.37500000    0.01250000   -0.00286080    0.00001963    0.73109789    0.00286086
    0.38750000    0.01250000   -0.00291996    0.00001822    0.78710370    0.00292001
    0.40000000    0.01250000   -0.00297447    0.00001678    0.84462721    0.00297451
    0.41250000    0.01250000   -0.00302421    0.00001529    0.90358237    0.00302425
    0.42500000    0.01250000   -0.00306907    0.00001376    0.96387980    0.00306910
    0.43750000    0.01250000   -0.00310893    0.00001220    1.02542998    0.00310896
    0.45000000    0.01250000   -0.00314369    0.00001060    1.08813550    0.00314370
    0.46250000    0.01250000   -0.00317323    0.00000896    1.15189160    0.00317324
    0.47500000    0.01250000   -0.00319747    0.00000729    1.21659437    0.00319748
    0.48750000    0.01250000   -0.00321632    0.00000559    1.28213444    0.00321632
    0.50000000    0.01250000   -0.00322969    0.00000387    1.34839375    0.00322969
    0.51250000    0.01250000   -0.00323750    0.00000211    1.41525510    0.00323750
    0.52500000    0.01250000   -0.00323969    0.00000034    1.48259554    0.00323969
    0.53750000    0.01250000   -0.00323620   -0.00000146    1.55028544    0.00323620
    0.55000000    0.01250000   -0.00322697   -0.00000328    1.61819665    0.00322697
    0.56250000    0.01250000   -0.00321197   -0.00000511    1.68619244    0.00321197
    0.57500000    0.01250000   -0.00319117   -0.00000695    1.75413435    0.00319117
    0.58750000    0.01250000   -0.00316454   -0.00000880    1.82188279    0.00316455
    0.60000000    0.01250000   -0.00313207   -0.00001066    1.88929084    0.00313208
    0.61250000    0.01250000   -0.00309376   -0.00001252    1.95621402    0.00309378
    0.62500000    0.01250000   -0.00304962   -0.00001438    2.02250159    0.00304966
    0.63750000    0.01250000   -0.00299968   -0.00001623    2.08800364    0.00299973
    0.65000000    0.01250000   -0.00294398   -0.00001807    2.15256744    0.00294403
    0.66250000    0.01250000   -0.00288255   -0.00001989    2.21603924    0.00288262
    0.67500000    0.01250000   -0.00281547   -0.00002170    2.27826617    0.00281555
    0.68750000    0.01250000   -0.00274281   -0.00002348    2.33909309    0.00274291
    0.70000000    0.01250000   -0.00266465   -0.00002523    2.39836781    0.00266477
    0.71250000    0.01250000   -0.00258111   -0.00002695    2.45593668    0.00258125
    0.72500000    0.01250000   -0.00249230   -0.00002863    2.51165029    0.00249246
    0.73750000    0.01250000   -0.00239835   -0.00003026    2.56535865    0.00239854
    0.75000000    0.01250000   -0.00229942   -0.00003185    2.61691701    0.00229964
    0.76250000    0.01250000   -0.00219566   -0.00003339    2.66618177    0.00219591
    0.77500000    0.01250000   -0.00208725   -0.00003486    2.71301540    0.00208754
    0.78750000    0.01250000   -0.00197438   -0.00003628    2.75728269    0.00197471
    0.80000000    0.01250000   -0.00185725   -0.00003762    2.79885537    0.00185763
    0.81250000    0.01250000   -0.00173607   -0.00003890    2.83760891    0.00173651
    0.82500000    0.01250000   -0.00161108   -0.00004011    2.87342610    0.00161158
    0.83750000    0.01250000   -0.00148251   -0.00004123    2.90619400    0.00148308
    0.85000000    0.01250000   -0.00135060   -0.00004228    2.93580686    0.00135126
    0.86250000    0.01250000   -0.00121564   -0.00004325    2.96216330    0.00121641
    0.87500000    0.01250000   -0.00107793   -0.00004411    2.98516781    0.00107883
    0.88750000    0.01250000   -0.00093791   -0.00004482    3.00472901    0.00093898
    0.90000000    0.01250000   -0.00079623   -0.00004530    3.02076238    0.00079752
    0.91250000    0.01250000   -0.00065397   -0.00004535    3.03319726    0.00065554
    0.92500000    0.01250000   -0.00051304   -0.00004461    3.04198854    0.00051497
    0.93750000    0.01250000   -0.00037657   -0.00004254    3.04716862    0.00037897
    0.95000000    0.01250000   -0.00024974   -0.00003826    3.04885375    0.00025265
    0.96250000    0.01250000   -0.00013952   -0.00003080    3.04755826    0.00014288
    0.97500000    0.01250000   -0.00005651   -0.00001887    3.04369641    0.00005957
    0.98750000    0.01250000   -0.00000572   -0.00000572    3.03998448    0.00000809
    1.00000000    0.01250000    0.00000000    0.00000000    3.03506283    0.00000000
    0.00000000    0.02500000    0.00000000    0.00000000    0.01172679    0.00000000
    0.01250000    0.02500000   -0.00001465    0.00004399    0.00362362    0.00004637
    0.02500000    0.02500000   -0.00010064    0.00010026   -0.00002108    0.00014206
    0.03750000    0.02500000   -0.00023019    0.00014985   -0.00432147    0.00027467
    0.05000000    0.02500000   -0.00039762    0.00018459   -0.00665201    0.00043838
    0.06250000    0.02500000   -0.00058877    0.00020612   -0.00707002    0.00062381
    0.07500000    0.02500000   -0.00079430    0.00021776   -0.00514838    0.00082361
    0.08750000    0.02500000   -0.00100706    0.00022298   -0.00081647    0.00103145
    0.10000000    0.02500000   -0.00122267    0.00022437    0.00597856    0.00124309
    0.11250000    0.02500000   -0.00143847    0.00022361    0.01523243    0.00145575
    0.12500000    0.02500000   -0.00165297    0.00022167    0.02693037    0.00166777
    0.13750000    0.02500000   -0.00186528    0.00021908    0.04105117    0.00187810
    0.15000000    0.02500000   -0.00207486    0.00021605    0.05757279    0.00208608
    0.16250000    0.02500000   -0.00228132    0.00021270    0.07647359    0.00229122
    0.17500000    0.02500000   -0.00248434    0.00020905    0.09773210    0.00249312
    0.18750000    0.02500000   -0.00268361    0.00020510    0.12132587    0.00269143
    0.20000000    0.02500000   -0.00287883    0.00020086    0.14723129    0.00288583
    0.21250000    0.02500000   -0.00306972    0.00019633    0.17542298    0.00307599
    0.22500000    0.02500000   -0.00325598    0.00019151    0.20587288    0.00326160
    0.23750000    0.02500000   -0.00343733    0.00018639    0.23855030    0.00344238
    0.25000000    0.02500000   -0.00361348    0.00018097    0.27342197    0.00361801
    0.26250000    0.02500000   -0.00378415    0.00017526    0.31045138    0.00378821
    0.27500000    0.02500000   -0.00394907    0.00016927    0.34959873    0.00395270
    0.28750000    0.02500000   -0.00410796    0.00016300    0.39082094    0.00411119
    0.30000000    0.02500000   -0.00426055    0.00015645    0.43407111    0.00426342
    0.31250000    0.02500000   -0.00440658    0.00014962    0.47929847    0.00440912
    0.32500000    0.02500000   -0.00454580    0.00014252    0.52644921    0.00454804
    0.33750000    0.02500000   -0.00467796    0.00013516    0.57546611    0.00467991
    0.35000000    0.02500000   -0.00480281    0.00012755    0.62628689    0.00480450
    0.36250000    0.02500000   -0.00492011    0.00011968    0.67884412    0.00492157
    0.37500000    0.02500000   -0.00502964    0.00011158    0.73306747    0.00503088
    0.38750000    0.02500000   -0.00513119    0.00010323    0.78888387    0.00513222
    0.40000000    0.02500000   -0.00522452    0.00009466    0.84621411    0.00522537
    0.41250000    0.02500000   -0.00530944    0.00008588    0.90497292    0.00531013
    0.42500000    0.02500000   -0.00538576    0.00007688    0.96507316    0.00538631
    0.43750000    0.02500000   -0.00545329    0.00006768    1.02642418    0.00545371
    0.45000000    0.02500000   -0.00551185    0.00005829    1.08892746    0.00551215
    0.46250000    0.02500000   -0.00556128    0.00004872    1.15248099    0.00556149
    0.47500000    0.02500000   -0.00560142    0.00003899    1.21698115    0.00560156
    0.48750000    0.02500000   -0.00563213    0.00002910    1.28231664    0.00563221
    0.50000000    0.02500000   -0.00565329    0.00001906    1.34837178    0.00565332
    0.51250000    0.02500000   -0.00566477    0.00000890    1.41502980    0.00566478
    0.52500000    0.02500000   -0.00566647   -0.00000138    1.48216619    0.00566647
    0.53750000    0.02500000   -0.00565831   -0.00001176    1.54965369    0.00565832
    0.55000000    0.02500000   -0.00564020   -0.00002222    1.61736314    0.00564024
    0.56250000    0.02500000   -0.00561209   -0.00003274    1.68515812    0.00561219
    0.57500000    0.02500000   -0.00557394   -0.00004332    1.75290194    0.00557411
    0.58750000    0.02500000   -0.00552573   -0.00005392    1.82045313    0.00552600
    0.60000000    0.02500000   -0.00546745   -0.00006452    1.88766726    0.00546783
    0.61250000    0.02500000   -0.00539911   -0.00007512    1.95439876    0.00539963
    0.62500000    0.02500000   -0.00532075   -0.00008569    2.02049753    0.00532144
    0.63750000    0.02500000   -0.00523241   -0.00009620    2.08581430    0.00523329
    0.65000000    0.02500000   -0.00513417   -0.00010663    2.15019595    0.00513528
    0.66250000    0.02500000   -0.00502613   -0.00011696    2.21349019    0.00502749
    0.67500000    0.02500000   -0.00490840   -0.00012716    2.27554289    0.00491005
    0.68750000    0.02500000   -0.00478112   -0.00013721    2.33620075    0.00478309
    0.70000000    0.02500000   -0.00464446   -0.00014709    2.39531051    0.00464679
    0.71250000    0.02500000   -0.00449860   -0.00015676    2.45271991    0.00450133
    0.72500000    0.02500000   -0.00434375   -0.00016621    2.50827861    0.00434693
    0.73750000    0.02500000   -0.00418015   -0.00017539    2.56183808    0.00418382
    0.75000000    0.02500000   -0.00400804   -0.00018430    2.61325291    0.00401228
    0.76250000    0.02500000   -0.00382773   -0.00019290    2.66238054    0.00383259
    0.77500000    0.02500000   -0.00363950   -0.00020117    2.70908284    0.00364506
    0.78750000    0.02500000   -0.00344369   -0.00020908    2.75322573    0.00345003
    0.80000000    0.02500000   -0.00324065   -0.00021661    2.79468049    0.00324788
    0.81250000    0.02500000   -0.00303074   -0.00022374    2.83332358    0.00303899
    0.82500000    0.02500000   -0.00281436   -0.00023045    2.86903768    0.00282378
    0.83750000    0.02500000   -0.00259193   -0.00023672    2.90171157    0.00260271
    0.85000000    0.02500000   -0.00236387   -0.00024252    2.93124037    0.00237628
    0.86250000    0.02500000   -0.00213069   -0.00024777    2.95752587    0.00214505
    0.87500000    0.02500000   -0.00189296   -0.00025236    2.98047639    0.00190971
    0.88750000    0.02500000   -0.00165147   -0.00025597    3.00000848    0.00167118
    0.90000000    0.02500000   -0.00140737   -0.00025801    3.01604842    0.00143083
    0.91250000    0.02500000   -0.00116257   -0.00025739    3.02854207    0.00119072
    0.92500000    0.02500000   -0.00092021   -0.00025225    3.03746242    0.00095416
    0.93750000    0.02500000   -0.00068536   -0.00023975    3.04286277    0.00072609
    0.95000000    0.02500000   -0.00046605   -0.00021612    3.04483711    0.00051372
    0.96250000    0.02500000   -0.00027272   -0.00017758    3.04389958    0.00032544
    0.97500000    0.02500000   -0.00012140   -0.00012179    3.04000563    0.00017196
    0.98750000    0.02500000   -0.00001872   -0.00005645    3.03628019    0.00005947
    1.00000000    0.02500000    0.00000000    0.00000000    3.02643659    0.00000000
    0.00000000    0.03750000    0.00000000    0.00000000    0.02016345    0.00000000
    0.01250000    0.03750000   -0.00002542    0.00011363    0.00791370    0.00011643
    0.02500000    0.03750000   -0.00015135    0.00023012    0.00424690    0.00027543
    0.03750000    0.03750000   -0.00032922    0.00032705   -0.00007129    0.00046406
    0.05000000    0.03750000   -0.00055239    0.00039536   -0.00200254    0.00067930
    0.06250000    0.03750000   -0.00080359    0.00043830   -0.00207081    0.00091535
    0.07500000    0.03750000   -0.00107209    0.00046209    0.00012545    0.00116743
    0.08750000    0.03750000   -0.00134950    0.00047312    0.00462533    0.00143003
    0.10000000    0.03750000   -0.00163055    0.00047631    0.01150048    0.00169869
    0.11250000    0.03750000   -0.00191195    0.00047497    0.02076709    0.00197006
    0.12500000    0.03750000   -0.00219174    0.00047105    0.03243026    0.00224179
    0.13750000    0.03750000   -0.00246876    0.00046561    0.04648259    0.00251229
    0.15000000    0.03750000   -0.00274224    0.00045916    0.06291198    0.00278041
    0.16250000    0.03750000   -0.00301160    0.00045195    0.08170299    0.00304533
    0.17500000    0.03750000   -0.00327640    0.00044405    0.10283756    0.00330636
    0.18750000    0.03750000   -0.00353622    0.00043550    0.12629556    0.00356293
    0.20000000    0.03750000   -0.00379064    0.00042631    0.15205484    0.00381454
    0.21250000    0.03750000   -0.00403929    0.00041648    0.18009067    0.00406070
    0.22500000    0.03750000   -0.00428177    0.00040602    0.21037581    0.00430098
    0.23750000    0.03750000   -0.00451771    0.00039493    0.24288043    0.00453494
    0.25000000    0.03750000   -0.00474673    0.00038321    0.27757162    0.00476217
    0.26250000    0.03750000   -0.00496847    0.00037087    0.31441329    0.00498229
    0.27500000    0.03750000   -0.00518256    0.00035793    0.35336619    0.00519491
    0.28750000    0.03750000   -0.00538866    0.00034439    0.39438744    0.00539965
    0.30000000    0.03750000   -0.00558641    0.00033026    0.43743055    0.00559616
    0.31250000    0.03750000   -0.00577548    0.00031556    0.48244571    0.00578409
    0.32500000    0.03750000   -0.00595555    0.00030030    0.52937975    0.00596311
    0.33750000    0.03750000   -0.00612628    0.00028449    0.57817534    0.00613288
    0.35000000    0.03750000   -0.00628738    0.00026815    0.62877031    0.00629309
    0.36250000    0.03750000   -0.00643853    0.00025129    0.68109825    0.00644344
    0.37500000    0.03750000   -0.00657947    0.00023393    0.73508988    0.00658362
    0.38750000    0.03750000   -0.00670989    0.00021609    0.79067181    0.00671337
    0.40000000    0.03750000   -0.00682955    0.00019778    0.84776466    0.00683241
    0.41250000    0.03750000   -0.00693817    0.00017903    0.90628480    0.00694048
    0.42500000    0.03750000   -0.00703553    0.00015985    0.96614606    0.00703735
    0.43750000    0.03750000   -0.00712139    0.00014026    1.02725667    0.00712277
    0.45000000    0.03750000   -0.00719554    0.00012030    1.08951901    0.00719654
    0.46250000    0.03750000   -0.00725777    0.00009997    1.15283280    0.00725846
    0.47500000    0.03750000   -0.00730790    0.00007931    1.21709329    0.00730833
    0.48750000    0.03750000   -0.00734575    0.00005834    1.28218977    0.00734598
    0.50000000    0.03750000   -0.00737117    0.00003709    1.34800843    0.00737127
    0.51250000    0.03750000   -0.00738403    0.00001559    1.41443124    0.00738405
    0.52500000    0.03750000   -0.00738420   -0.00000614    1.48133486    0.00738420
    0.53750000    0.03750000   -0.00737158   -0.00002804    1.54859302    0.00737163
    0.55000000    0.03750000   -0.00734609   -0.00005010    1.61607524    0.00734626
    0.56250000    0.03750000   -0.00730767   -0.00007228    1.68364699    0.00730803
    0.57500000    0.03750000   -0.00725628   -0.00009453    1.75117120    0.00725690
    0.58750000    0.03750000   -0.00719190   -0.00011682    1.81850671    0.00719285
    0.60000000    0.03750000   -0.00711454   -0.00013911    1.88551001    0.00711590
    0.61250000    0.03750000   -0.00702422   -0.00016136    1.95203491    0.00702607
    0.62500000    0.03750000   -0.00692099   -0.00018352    2.01793271    0.00692343
    0.63750000    0.03750000   -0.00680495   -0.00020555    2.08305325    0.00680805
    0.65000000    0.03750000   -0.00667618   -0.00022740    2.14724440    0.00668005
    0.66250000    0.03750000   -0.00653483   -0.00024901    2.21035360    0.00653957
    0.67500000    0.03750000   -0.00638105   -0.00027035    2.27222720    0.00638678
    0.68750000    0.03750000   -0.00621504   -0.00029136    2.33271192    0.00622186
    0.70000000    0.03750000   -0.00603700   -0.00031198    2.39165465    0.00604505
    0.71250000    0.03750000   -0.00584719   -0.00033217    2.44890350    0.00585662
    0.72500000    0.03750000   -0.00564588   -0.00035187    2.50430797    0.00565683
    0.73750000    0.03750000   -0.00543338   -0.00037102    2.55771980    0.00544603
    0.75000000    0.03750000   -0.00521002   -0.00038958    2.60899345    0.00522457
    0.76250000    0.03750000   -0.00497618   -0.00040749    2.65798674    0.00499283
    0.77500000    0.03750000   -0.00473223   -0.00042470    2.70456135    0.00475125
    0.78750000    0.03750000   -0.00447861   -0.00044116    2.74858356    0.00450029
    0.80000000    0.03750000   -0.00421577   -0.00045683    2.78992470    0.00424045
    0.81250000    0.03750000   -0.00394419   -0.00047165    2.82846182    0.00397229
    0.82500000    0.03750000   -0.00366437   -0.00048558    2.86407801    0.00369641
    0.83750000    0.03750000   -0.00337686   -0.00049857    2.89666318    0.00341346
    0.85000000    0.03750000   -0.00308223   -0.00051053    2.92611440    0.00312422
    0.86250000    0.03750000   -0.00278114   -0.00052132    2.95233687    0.00282958
    0.87500000    0.03750000   -0.00247437   -0.00053063    2.97524489    0.00253063
    0.88750000    0.03750000   -0.00216297   -0.00053781    2.99476445    0.00222883
    0.90000000    0.03750000   -0.00184846   -0.00054165    3.01083657    0.00192618
    0.91250000    0.03750000   -0.00153323   -0.00053995    3.02342719    0.00162553
    0.92500000    0.03750000   -0.00122117   -0.00052907    3.03253071    0.00133086
    0.93750000    0.03750000   -0.00091831   -0.00050367    3.03822073    0.00104736
    0.95000000    0.03750000   -0.00063406   -0.00045677    3.04055954    0.00078145
    0.96250000    0.03750000   -0.00038037   -0.00038134    3.04003820    0.00053861
    0.97500000    0.03750000   -0.00017662   -0.00027288    3.03611256    0.00032505
    0.98750000    0.03750000   -0.00003045   -0.00013901    3.03237700    0.00014231
    1.00000000    0.03750000    0.00000000    0.00000000    3.01799836    0.00000000
    0.00000000    0.05000000    0.00000000    0.00000000    0.02610766    0.00000000
    0.01250000    0.05000000   -0.00003246    0.00020842    0.01053964    0.00021093
    0.02500000    0.05000000   -0.00018794    0.00039910    0.00649698    0.00044114
    0.03750000    0.05000000   -0.00040118    0.00055092    0.00173870    0.00068151
    0.05000000    0.05000000   -0.00066435    0.00065726   -0.00021079    0.00093453
    0.06250000    0.05000000   -0.00095762    0.00072435   -0.00023211    0.00120071
    0.07500000    0.05000000   -0.00126949    0.00076194    0.00204555    0.00148059
    0.08750000    0.05000000   -0.00159092    0.00077967    0.00660670    0.00177170
    0.10000000    0.05000000   -0.00191627    0.00078499    0.01351434    0.00207082
    0.11250000    0.05000000   -0.00224194    0.00078297    0.02278262    0.00237472
    0.12500000    0.05000000   -0.00256575    0.00077666    0.03442111    0.00268072
    0.13750000    0.05000000   -0.00288635    0.00076776    0.04842801    0.00298672
    0.15000000    0.05000000   -0.00320284    0.00075710    0.06479536    0.00329111
    0.16250000    0.05000000   -0.00351455    0.00074511    0.08351138    0.00359266
    0.17500000    0.05000000   -0.00382090    0.00073193    0.10456123    0.00389038
    0.18750000    0.05000000   -0.00412141    0.00071764    0.12792648    0.00418343
    0.20000000    0.05000000   -0.00441559    0.00070227    0.15358635    0.00447109
    0.21250000    0.05000000   -0.00470299    0.00068584    0.18151755    0.00475273
    0.22500000    0.05000000   -0.00498314    0.00066834    0.21169341    0.00502776
    0.23750000    0.05000000   -0.00525562    0.00064980    0.24408460    0.00529563
    0.25000000    0.05000000   -0.00551998    0.00063023    0.27865919    0.00555584
    0.26250000    0.05000000   -0.00577579    0.00060964    0.31538167    0.00580788
    0.27500000    0.05000000   -0.00602265    0.00058806    0.35421309    0.00605129
    0.28750000    0.05000000   -0.00626015    0.00056550    0.39511140    0.00628564
    0.30000000    0.05000000   -0.00648788    0.00054197    0.43803079    0.00651048
    0.31250000    0.05000000   -0.00670547    0.00051751    0.48292184    0.00672542
    0.32500000    0.05000000   -0.00691255    0.00049213    0.52973188    0.00693004