 TITLE = "NAVIER STOKES 2D - FD"
 VARIABLES = "X" "Y" "U" "V" "P" "U_MAG"
  ZONE F=POINT, I=          81 , J=           81
    0.00000000    0.00000000    0.00000000    0.00000000    0.00000000    0.00000000
    0.01250000    0.00000000    0.00000000    0.00000000   -0.00235081    0.00000000
    0.02500000    0.00000000    0.00000000    0.00000000   -0.01009229    0.00000000
    0.03750000    0.00000000    0.00000000    0.00000000   -0.02011847    0.00000000
    0.05000000    0.00000000    0.00000000    0.00000000   -0.02919200    0.00000000
    0.06250000    0.00000000    0.00000000    0.00000000   -0.03597666    0.00000000
    0.07500000    0.00000000    0.00000000    0.00000000   -0.03976518    0.00000000
    0.08750000    0.00000000    0.00000000    0.00000000   -0.04028993    0.00000000
    0.10000000    0.00000000    0.00000000    0.00000000   -0.03747217    0.00000000
    0.11250000    0.00000000    0.00000000    0.00000000   -0.03134359    0.00000000
    0.12500000    0.00000000    0.00000000    0.00000000   -0.02198717    0.00000000
    0.13750000    0.00000000    0.00000000    0.00000000   -0.00950822    0.00000000
    0.15000000    0.00000000    0.00000000    0.00000000    0.00598429    0.00000000
    0.16250000    0.00000000    0.00000000    0.00000000    0.02438777    0.00000000
    0.17500000    0.00000000    0.00000000    0.00000000    0.04561113    0.00000000
    0.18750000    0.00000000    0.00000000    0.00000000    0.06957663    0.00000000
    0.20000000    0.00000000    0.00000000    0.00000000    0.09621997    0.00000000
    0.21250000    0.00000000    0.00000000    0.00000000    0.12548888    0.00000000
    0.22500000    0.00000000    0.00000000    0.00000000    0.15734113    0.00000000
    0.23750000    0.00000000    0.00000000    0.00000000    0.19174237    0.00000000
    0.25000000    0.00000000    0.00000000    0.00000000    0.22866371    0.00000000
    0.26250000    0.00000000    0.00000000    0.00000000    0.26807944    0.00000000
    0.27500000    0.00000000    0.00000000    0.00000000    0.30996498    0.00000000
    0.28750000    0.00000000    0.00000000    0.00000000    0.35429501    0.00000000
    0.30000000    0.00000000    0.00000000    0.00000000    0.40104170    0.00000000
    0.31250000    0.00000000    0.00000000    0.00000000    0.45017324    0.00000000
    0.32500000    0.00000000    0.00000000    0.00000000    0.50165249    0.00000000
    0.33750000    0.00000000    0.00000000    0.00000000    0.55543572    0.00000000
    0.35000000    0.00000000    0.00000000    0.00000000    0.61147139    0.00000000
    0.36250000    0.00000000    0.00000000    0.00000000    0.66969908    0.00000000
    0.37500000    0.00000000    0.00000000    0.00000000    0.73004842    0.00000000
    0.38750000    0.00000000    0.00000000    0.00000000    0.79243824    0.00000000
    0.40000000    0.00000000    0.00000000    0.00000000    0.85677580    0.00000000
    0.41250000    0.00000000    0.00000000    0.00000000    0.92295596    0.00000000
    0.42500000    0.00000000    0.00000000    0.00000000    0.99086013    0.00000000
    0.43750000    0.00000000    0.00000000    0.00000000    1.06035559    0.00000000
    0.45000000    0.00000000    0.00000000    0.00000000    1.13129513    0.00000000
    0.46250000    0.00000000    0.00000000    0.00000000    1.20351677    0.00000000
    0.47500000    0.00000000    0.00000000    0.00000000    1.27684341    0.00000000
    0.48750000    0.00000000    0.00000000    0.00000000    1.35108265    0.00000000
    0.50000000    0.00000000    0.00000000    0.00000000    1.42602707    0.00000000
    0.51250000    0.00000000    0.00000000    0.00000000    1.50145472    0.00000000
    0.52500000    0.00000000    0.00000000    0.00000000    1.57712968    0.00000000
    0.53750000    0.00000000    0.00000000    0.00000000    1.65280330    0.00000000
    0.55000000    0.00000000    0.00000000    0.00000000    1.72821547    0.00000000
    0.56250000    0.00000000    0.00000000    0.00000000    1.80309569    0.00000000
    0.57500000    0.00000000    0.00000000    0.00000000    1.87716573    0.00000000
    0.58750000    0.00000000    0.00000000    0.00000000    1.95014235    0.00000000
    0.60000000    0.00000000    0.00000000    0.00000000    2.02173837    0.00000000
    0.61250000    0.00000000    0.00000000    0.00000000    2.09166513    0.00000000
    0.62500000    0.00000000    0.00000000    0.00000000    2.15963763    0.00000000
    0.63750000    0.00000000    0.00000000    0.00000000    2.22537664    0.00000000
    0.65000000    0.00000000    0.00000000    0.00000000    2.28860997    0.00000000
    0.66250000    0.00000000    0.00000000    0.00000000    2.34907806    0.00000000
    0.67500000    0.00000000    0.00000000    0.00000000    2.40653641    0.00000000
    0.68750000    0.00000000    0.00000000    0.00000000    2.46075734    0.00000000
    0.70000000    0.00000000    0.00000000    0.00000000    2.51153459    0.00000000
    0.71250000    0.00000000    0.00000000    0.00000000    2.55868410    0.00000000
    0.72500000    0.00000000    0.00000000    0.00000000    2.60204720    0.00000000
    0.73750000    0.00000000    0.00000000    0.00000000    2.64149220    0.00000000
    0.75000000    0.00000000    0.00000000    0.00000000    2.67691509    0.00000000
    0.76250000    0.00000000    0.00000000    0.00000000    2.70824191    0.00000000
    0.77500000    0.00000000    0.00000000    0.00000000    2.73542802    0.00000000
    0.78750000    0.00000000    0.00000000    0.00000000    2.75845990    0.00000000
    0.80000000    0.00000000    0.00000000    0.00000000    2.77735461    0.00000000
    0.81250000    0.00000000    0.00000000    0.00000000    2.79216074    0.00000000
    0.82500000    0.00000000    0.00000000    0.00000000    2.80295875    0.00000000
    0.83750000    0.00000000    0.00000000    0.00000000    2.80986204    0.00000000
    0.85000000    0.00000000    0.00000000    0.00000000    2.81301880    0.00000000
    0.86250000    0.00000000    0.00000000    0.00000000    2.81261469    0.00000000
    0.87500000    0.00000000    0.00000000    0.00000000    2.80887767    0.00000000
    0.88750000    0.00000000    0.00000000    0.00000000    2.80208494    0.00000000
    0.90000000    0.00000000    0.00000000    0.00000000    2.79257413    0.00000000
    0.91250000    0.00000000    0.00000000    0.00000000    2.78076050    0.00000000
    0.92500000    0.00000000    0.00000000    0.00000000    2.76716344    0.00000000
    0.93750000    0.00000000    0.00000000    0.00000000    2.75245202    0.00000000
    0.95000000    0.00000000    0.00000000    0.00000000    2.73751215    0.00000000
    0.96250000    0.00000000    0.00000000    0.00000000    2.72359718    0.00000000
    0.97500000    0.00000000    0.00000000    0.00000000    2.71247641    0.00000000
    0.98750000    0.00000000    0.00000000    0.00000000    2.70663076    0.00000000
    1.00000000    0.00000000    0.00000000    0.00000000    2.70778065    0.00000000
    0.00000000    0.01250000    0.00000000    0.00000000    0.00233563    0.00000000
    0.01250000    0.01250000    0.00000077   -0.00000071   -0.00002870    0.00000104
    0.02500000    0.01250000   -0.00002686    0.00000942   -0.00399862    0.00002846
    0.03750000    0.01250000   -0.00008575    0.00002140   -0.00934735    0.00008838
    0.05000000    0.01250000   -0.00017634    0.00003122   -0.01393096    0.00017908
    0.06250000    0.01250000   -0.00029306    0.00003891   -0.01702815    0.00029563
    0.07500000    0.01250000   -0.00043076    0.00004464   -0.01794083    0.00043307
    0.08750000    0.01250000   -0.00058438    0.00004879   -0.01632584    0.00058641
    0.10000000    0.01250000   -0.00074972    0.00005168   -0.01197285    0.00075150
    0.11250000    0.01250000   -0.00092334    0.00005361   -0.00479017    0.00092489
    0.12500000    0.01250000   -0.00110253    0.00005481    0.00524861    0.00110389
    0.13750000    0.01250000   -0.00128520    0.00005547    0.01812836    0.00128640
    0.15000000    0.01250000   -0.00146980    0.00005573    0.03381198    0.00147085
    0.16250000    0.01250000   -0.00165512    0.00005572    0.05225228    0.00165606
    0.17500000    0.01250000   -0.00184032    0.00005550    0.07339958    0.00184116
    0.18750000    0.01250000   -0.00202474    0.00005514    0.09720606    0.00202549
    0.20000000    0.01250000   -0.00220789    0.00005466    0.12362791    0.00220857
    0.21250000    0.01250000   -0.00238941    0.00005411    0.15262609    0.00239003
    0.22500000    0.01250000   -0.00256900    0.00005348    0.18416604    0.00256955
    0.23750000    0.01250000   -0.00274636    0.00005279    0.21821681    0.00274687
    0.25000000    0.01250000   -0.00292126    0.00005202    0.25474993    0.00292173
    0.26250000    0.01250000   -0.00309343    0.00005119    0.29373803    0.00309385
    0.27500000    0.01250000   -0.00326259    0.00005027    0.33515339    0.00326297
    0.28750000    0.01250000   -0.00342843    0.00004926    0.37896667    0.00342878
    0.30000000    0.01250000   -0.00359064    0.00004814    0.42514550    0.00359096
    0.31250000    0.01250000   -0.00374885    0.00004692    0.47365328    0.00374914
    0.32500000    0.01250000   -0.00390267    0.00004557    0.52444797    0.00390294
    0.33750000    0.01250000   -0.00405169    0.00004410    0.57748099    0.00405193
    0.35000000    0.01250000   -0.00419546    0.00004248    0.63269615    0.00419567
    0.36250000    0.01250000   -0.00433349    0.00004070    0.69002860    0.00433368
    0.37500000    0.01250000   -0.00446527    0.00003877    0.74940399    0.00446544
    0.38750000    0.01250000   -0.00459028    0.00003667    0.81073759    0.00459043
    0.40000000    0.01250000   -0.00470796    0.00003440    0.87393352    0.00470809
    0.41250000    0.01250000   -0.00481774    0.00003194    0.93888391    0.00481784
    0.42500000    0.01250000   -0.00491903    0.00002930    1.00546814    0.00491912
    0.43750000    0.01250000   -0.00501123    0.00002647    1.07355232    0.00501130
    0.45000000    0.01250000   -0.00509374    0.00002345    1.14298894    0.00509379
    0.46250000    0.01250000   -0.00516596    0.00002024    1.21361663    0.00516600
    0.47500000    0.01250000   -0.00522730    0.00001685    1.28525984    0.00522733
    0.48750000    0.01250000   -0.00527717    0.00001328    1.35772888    0.00527719
    0.50000000    0.01250000   -0.00531502    0.00000954    1.43082029    0.00531503
    0.51250000    0.01250000   -0.00534032    0.00000563    1.50431731    0.00534033
    0.52500000    0.01250000   -0.00535259    0.00000158    1.57799035    0.00535259
    0.53750000    0.01250000   -0.00535138   -0.00000260    1.65159875    0.00535138
    0.55000000    0.01250000   -0.00533631   -0.00000690    1.72489196    0.00533631
    0.56250000    0.01250000   -0.00530706   -0.00001128    1.79761017    0.00530707
    0.57500000    0.01250000   -0.00526339   -0.00001573    1.86948687    0.00526341
    0.58750000    0.01250000   -0.00520513   -0.00002022    1.94025121    0.00520517
    0.60000000    0.01250000   -0.00513220   -0.00002471    2.00962936    0.00513226
    0.61250000    0.01250000   -0.00504463   -0.00002919    2.07734781    0.00504471
    0.62500000    0.01250000   -0.00494252   -0.00003361    2.14313699    0.00494263
    0.63750000    0.01250000   -0.00482608   -0.00003795    2.20673253    0.00482623
    0.65000000    0.01250000   -0.00469563   -0.00004217    2.26787844    0.00469582
    0.66250000    0.01250000   -0.00455160   -0.00004623    2.32633148    0.00455184
    0.67500000    0.01250000   -0.00439451   -0.00005011    2.38186237    0.00439479
    0.68750000    0.01250000   -0.00422498   -0.00005377    2.43425940    0.00422532
    0.70000000    0.01250000   -0.00404374   -0.00005718    2.48333137    0.00404414
    0.71250000    0.01250000   -0.00385162   -0.00006031    2.52890895    0.00385209
    0.72500000    0.01250000   -0.00364954   -0.00006314    2.57084832    0.00365009
    0.73750000    0.01250000   -0.00343852   -0.00006562    2.60903170    0.00343915
    0.75000000    0.01250000   -0.00321967   -0.00006774    2.64336996    0.00322038
    0.76250000    0.01250000   -0.00299419   -0.00006946    2.67380371    0.00299500
    0.77500000    0.01250000   -0.00276340   -0.00007076    2.70030417    0.00276430
    0.78750000    0.01250000   -0.00252870   -0.00007160    2.72287493    0.00252972
    0.80000000    0.01250000   -0.00229164   -0.00007195    2.74155196    0.00229277
    0.81250000    0.01250000   -0.00205387   -0.00007176    2.75640555    0.00205513
    0.82500000    0.01250000   -0.00181722   -0.00007099    2.76754060    0.00181861
    0.83750000    0.01250000   -0.00158368   -0.00006958    2.77509882    0.00158521
    0.85000000    0.01250000   -0.00135543   -0.00006747    2.77926019    0.00135711
    0.86250000    0.01250000   -0.00113487   -0.00006458    2.78024620    0.00113671
    0.87500000    0.01250000   -0.00092466   -0.00006085    2.77832341    0.00092666
    0.88750000    0.01250000   -0.00072769   -0.00005617    2.77380925    0.00072985
    0.90000000    0.01250000   -0.00054710   -0.00005047    2.76707903    0.00054943
    0.91250000    0.01250000   -0.00038627   -0.00004367    2.75857700    0.00038873
    0.92500000    0.01250000   -0.00024866   -0.00003571    2.74882792    0.00025121
    0.93750000    0.01250000   -0.00013769   -0.00002662    2.73846020    0.00014024
    0.95000000    0.01250000   -0.00005631   -0.00001652    2.72821230    0.00005868
    0.96250000    0.01250000   -0.00000620   -0.00000594    2.71899216    0.00000859
    0.97500000    0.01250000    0.00001357    0.00000388    2.71182486    0.00001412
    0.98750000    0.01250000    0.00000877    0.00000883    2.70775773    0.00001245
    1.00000000    0.01250000    0.00000000    0.00000000    2.70893052    0.00000000
    0.00000000    0.02500000    0.00000000    0.00000000    0.01017810    0.00000000
    0.01250000    0.02500000   -0.00000951    0.00002695    0.00394422    0.00002858
    0.02500000    0.02500000   -0.00008069    0.00007985   -0.00003683    0.00011352
    0.03750000    0.02500000   -0.00020261    0.00013832   -0.00522298    0.00024532
    0.05000000    0.02500000   -0.00037668    0.00019022   -0.00916235    0.00042199
    0.06250000    0.02500000   -0.00059425    0.00023297   -0.01157202    0.00063829
    0.07500000    0.02500000   -0.00084764    0.00026635   -0.01181412    0.00088850
    0.08750000    0.02500000   -0.00112891    0.00029145   -0.00961520    0.00116592
    0.10000000    0.02500000   -0.00143122    0.00030964   -0.00477964    0.00146433
    0.11250000    0.02500000   -0.00174881    0.00032227    0.00278204    0.00177826
    0.12500000    0.02500000   -0.00207701    0.00033056    0.01310476    0.00210315
    0.13750000    0.02500000   -0.00241210    0.00033552    0.02618527    0.00243533
    0.15000000    0.02500000   -0.00275122    0.00033797    0.04199949    0.00277190
    0.16250000    0.02500000   -0.00309215    0.00033854    0.06051249    0.00311062
    0.17500000    0.02500000   -0.00343321    0.00033774    0.08168532    0.00344979
    0.18750000    0.02500000   -0.00377314    0.00033589    0.10547913    0.00378807
    0.20000000    0.02500000   -0.00411096    0.00033326    0.13185725    0.00412444
    0.21250000    0.02500000   -0.00444587    0.00033000    0.16078606    0.00445810
    0.22500000    0.02500000   -0.00477725    0.00032621    0.19223495    0.00478838
    0.23750000    0.02500000   -0.00510453    0.00032193    0.22617571    0.00511467
    0.25000000    0.02500000   -0.00542717    0.00031717    0.26258159    0.00543643
    0.26250000    0.02500000   -0.00574464    0.00031191    0.30142615    0.00575311
    0.27500000    0.02500000   -0.00605641    0.00030612    0.34268207    0.00606414
    0.28750000    0.02500000   -0.00636189    0.00029976    0.38631993    0.00636895
    0.30000000    0.02500000   -0.00666047    0.00029277    0.43230702    0.00666690
    0.31250000    0.02500000   -0.00695147    0.00028510    0.48060618    0.00695731
    0.32500000    0.02500000   -0.00723418    0.00027668    0.53117472    0.00723947
    0.33750000    0.02500000   -0.00750782    0.00026747    0.58396331    0.00751258
    0.35000000    0.02500000   -0.00777158    0.00025742    0.63891504    0.00777584
    0.36250000    0.02500000   -0.00802457    0.00024646    0.69596439    0.00802836
    0.37500000    0.02500000   -0.00826590    0.00023456    0.75503639    0.00826923
    0.38750000    0.02500000   -0.00849459    0.00022166    0.81604578    0.00849748
    0.40000000    0.02500000   -0.00870966    0.00020774    0.87889624    0.00871214
    0.41250000    0.02500000   -0.00891009    0.00019276    0.94347957    0.00891217
    0.42500000    0.02500000   -0.00909482    0.00017670    1.00967497    0.00909653
    0.43750000    0.02500000   -0.00926279    0.00015955    1.07734859    0.00926416
    0.45000000    0.02500000   -0.00941293    0.00014130    1.14635318    0.00941399
    0.46250000    0.02500000   -0.00954419    0.00012197    1.21652770    0.00954497
    0.47500000    0.02500000   -0.00965551    0.00010156    1.28769720    0.00965604
    0.48750000    0.02500000   -0.00974588    0.00008012    1.35967285    0.00974621
    0.50000000    0.02500000   -0.00981432    0.00005770    1.43225226    0.00981449
    0.51250000    0.02500000   -0.00985991    0.00003435    1.50522000    0.00985997
    0.52500000    0.02500000   -0.00988180    0.00001016    1.57834823    0.00988181
    0.53750000    0.02500000   -0.00987923   -0.00001479    1.65139787    0.00987925
    0.55000000    0.02500000   -0.00985154   -0.00004037    1.72411984    0.00985162
    0.56250000    0.02500000   -0.00979817   -0.00006646    1.79625663    0.00979840
    0.57500000    0.02500000   -0.00971871   -0.00009292    1.86754432    0.00971916
    0.58750000    0.02500000   -0.00961288   -0.00011961    1.93771435    0.00961362
    0.60000000    0.02500000   -0.00948055   -0.00014635    2.00649571    0.00948167
    0.61250000    0.02500000   -0.00932175   -0.00017297    2.07361811    0.00932336
    0.62500000    0.02500000   -0.00913670   -0.00019930    2.13881463    0.00913887
    0.63750000    0.02500000   -0.00892577   -0.00022515    2.20182380    0.00892861
    0.65000000    0.02500000   -0.00868953   -0.00025032    2.26239323    0.00869313
    0.66250000    0.02500000   -0.00842871   -0.00027464    2.32028256    0.00843319
    0.67500000    0.02500000   -0.00814425   -0.00029791    2.37526587    0.00814969
    0.68750000    0.02500000   -0.00783723   -0.00031994    2.42713500    0.00784376
    0.70000000    0.02500000   -0.00750895   -0.00034056    2.47570193    0.00751667
    0.71250000    0.02500000   -0.00716085   -0.00035960    2.52080126    0.00716988
    0.72500000    0.02500000   -0.00679456   -0.00037687    2.56229271    0.00680500
    0.73750000    0.02500000   -0.00641186   -0.00039220    2.60006264    0.00642384
    0.75000000    0.02500000   -0.00601472   -0.00040542    2.63402631    0.00602837
    0.76250000    0.02500000   -0.00560528   -0.00041636    2.66412895    0.00562072
    0.77500000    0.02500000   -0.00518585   -0.00042481    2.69034726    0.00520322
    0.78750000    0.02500000   -0.00475896   -0.00043058    2.71269052    0.00477840
    0.80000000    0.02500000   -0.00432735   -0.00043344    2.73120149    0.00434900
    0.81250000    0.02500000   -0.00389399   -0.00043312    2.74595767    0.00391800
    0.82500000    0.02500000   -0.00346214   -0.00042933    2.75707222    0.00348866
    0.83750000    0.02500000   -0.00303537   -0.00042174    2.76469558    0.00306453
    0.85000000    0.02500000   -0.00261758   -0.00040997    2.76901704    0.00264949
    0.86250000    0.02500000   -0.00221307   -0.00039360    2.77026725    0.00224780
    0.87500000    0.02500000   -0.00182653   -0.00037219    2.76872114    0.00186406
    0.88750000    0.02500000   -0.00146305   -0.00034528    2.76470214    0.00150324
    0.90000000    0.02500000   -0.00112810   -0.00031245    2.75858718    0.00117057
    0.91250000    0.02500000   -0.00082745   -0.00027342    2.75081430    0.00087145
    0.92500000    0.02500000   -0.00056691   -0.00022814    2.74188872    0.00061109
    0.93750000    0.02500000   -0.00035200   -0.00017712    2.73240120    0.00039405
    0.95000000    0.02500000   -0.00018733   -0.00012183    2.72301192    0.00022346
    0.96250000    0.02500000   -0.00007520   -0.00006577    2.71453696    0.00009990
    0.97500000    0.02500000   -0.00001442   -0.00001568    2.70772965    0.00002130
    0.98750000    0.02500000    0.00000399    0.00001366    2.70369155    0.00001423
    1.00000000    0.02500000    0.00000000    0.00000000    2.70324266    0.00000000
    0.00000000    0.03750000    0.00000000    0.00000000    0.02046038    0.00000000
    0.01250000    0.03750000   -0.00002200    0.00008687    0.00928469    0.00008961
    0.02500000    0.03750000   -0.00014199    0.00020246    0.00509174    0.00024729
    0.03750000    0.03750000   -0.00032717    0.00032166   -0.00013382    0.00045881
    0.05000000    0.03750000   -0.00057895    0.00042776   -0.00341131    0.00071983
    0.06250000    0.03750000   -0.00088572    0.00051623   -0.00503099    0.00102518
    0.07500000    0.03750000   -0.00123845    0.00058652   -0.00445421    0.00137032
    0.08750000    0.03750000   -0.00162754    0.00064032   -0.00151482    0.00174897
    0.10000000    0.03750000   -0.00204463    0.00068004    0.00394986    0.00215475
    0.11250000    0.03750000   -0.00248247    0.00070819    0.01201733    0.00258151
    0.12500000    0.03750000   -0.00293505    0.00072712    0.02272761    0.00302378
    0.13750000    0.03750000   -0.00339750    0.00073883    0.03608916    0.00347690
    0.15000000    0.03750000   -0.00386592    0.00074499    0.05209241    0.00393705
    0.16250000    0.03750000   -0.00433729    0.00074694    0.07071697    0.00440114
    0.17500000    0.03750000   -0.00480922    0.00074569    0.09193728    0.00486669
    0.18750000    0.03750000   -0.00527988    0.00074202    0.11572593    0.00533177
    0.20000000    0.03750000   -0.00574781    0.00073647    0.14205563    0.00579480
    0.21250000    0.03750000   -0.00621185    0.00072939    0.17090014    0.00625452
    0.22500000    0.03750000   -0.00667101    0.00072102    0.20223443    0.00670986
    0.23750000    0.03750000   -0.00712443    0.00071147    0.23603426    0.00715986
    0.25000000    0.03750000   -0.00757131    0.00070078    0.27227562    0.00760367
    0.26250000    0.03750000   -0.00801086    0.00068893    0.31093377    0.00804043
    0.27500000    0.03750000   -0.00844228    0.00067586    0.35198229    0.00846929
    0.28750000    0.03750000   -0.00886475    0.00066149    0.39539212    0.00888939
    0.30000000    0.03750000   -0.00927737    0.00064571    0.44113048    0.00929982
    0.31250000    0.03750000   -0.00967922    0.00062841    0.48915985    0.00969960
    0.32500000    0.03750000   -0.01006928    0.00060948    0.53943704    0.01008771
    0.33750000    0.03750000   -0.01044650    0.00058881    0.59191212    0.01046308
    0.35000000    0.03750000   -0.01080973    0.00056628    0.64652753    0.01082456
    0.36250000    0.03750000   -0.01115780    0.00054178    0.70321715    0.01117095
    0.37500000    0.03750000   -0.01148945    0.00051523    0.76190548    0.01150100
    0.38750000    0.03750000   -0.01180339    0.00048652    0.82250686    0.01181341
    0.40000000    0.03750000   -0.01209827    0.00045560    0.88492461    0.01210684
    0.41250000    0.03750000   -0.01237270    0.00042239    0.94905029    0.01237991
    0.42500000    0.03750000   -0.01262529    0.00038686    1.01476308    0.01263122
    0.43750000    0.03750000   -0.01285461    0.00034898    1.08192929    0.01285934
    0.45000000    0.03750000   -0.01305922    0.00030875    1.15040201    0.01306287
    0.46250000    0.03750000   -0.01323772    0.00026619    1.22002072    0.01324040
    0.47500000    0.03750000   -0.01338871    0.00022136    1.29061115    0.01339054
    0.48750000    0.03750000   -0.01351085    0.00017432    1.36198544    0.01351197
    0.50000000    0.03750000   -0.01360284    0.00012518    1.43394239    0.01360342
    0.51250000    0.03750000   -0.01366349    0.00007409    1.50626790    0.01366369
    0.52500000    0.03750000   -0.01369166    0.00002121    1.57873579    0.01369168
    0.53750000    0.03750000   -0.01368638   -0.00003325    1.65110868    0.01368642
    0.55000000    0.03750000   -0.01364677   -0.00008905    1.72313944    0.01364706
    0.56250000    0.03750000   -0.01357214   -0.00014592    1.79457285    0.01357293
    0.57500000    0.03750000   -0.01346196   -0.00020356    1.86514718    0.01346349
    0.58750000    0.03750000   -0.01331587   -0.00026166    1.93459629    0.01331844
    0.60000000    0.03750000   -0.01313373   -0.00031986    2.00265211    0.01313763
    0.61250000    0.03750000   -0.01291563   -0.00037779    2.06904715    0.01292115
    0.62500000    0.03750000   -0.01266186   -0.00043507    2.13351715    0.01266933
    0.63750000    0.03750000   -0.01237294   -0.00049131    2.19580397    0.01238269
    0.65000000    0.03750000   -0.01204965   -0.00054611    2.25565836    0.01206202
    0.66250000    0.03750000   -0.01169300   -0.00059907    2.31284325    0.01170834
    0.67500000    0.03750000   -0.01130422   -0.00064979    2.36713640    0.01132288
    0.68750000    0.03750000   -0.01088481   -0.00069787    2.41833323    0.01090715
    0.70000000    0.03750000   -0.01043646   -0.00074294    2.46624984    0.01046287
    0.71250000    0.03750000   -0.00996114   -0.00078460    2.51072511    0.00999199
    0.72500000    0.03750000   -0.00946101   -0.00082250    2.55162341    0.00949670
    0.73750000    0.03750000   -0.00893847   -0.00085624    2.58883641    0.00897939
    0.75000000    0.03750000   -0.00839616   -0.00088547    2.62228503    0.00844272
    0.76250000    0.03750000   -0.00783693   -0.00090977    2.65192111    0.00788956
    0.77500000    0.03750000   -0.00726390   -0.00092874    2.67772862    0.00732303
    0.78750000    0.03750000   -0.00668046   -0.00094192    2.69972514    0.00674654
    0.80000000    0.03750000   -0.00609028   -0.00094880    2.71796275    0.00616375
    0.81250000    0.03750000   -0.00549738   -0.00094883    2.73252934    0.00557866
    0.82500000    0.03750000   -0.00490612   -0.00094135    2.74354950    0.00499562
    0.83750000    0.03750000   -0.00432128   -0.00092566    2.75118592    0.00441931
    0.85000000    0.03750000   -0.00374809   -0.00090094    2.75564059    0.00385485
    0.86250000    0.03750000   -0.00319225   -0.00086635    2.75715652    0.00330772
    0.87500000    0.03750000   -0.00265996   -0.00082097    2.75601941    0.00278377
    0.88750000    0.03750000   -0.00215790   -0.00076393    2.75255976    0.00228913
    0.90000000    0.03750000   -0.00169314   -0.00069447    2.74715447    0.00183003
    0.91250000    0.03750000   -0.00127302   -0.00061215    2.74022990    0.00141255
    0.92500000    0.03750000   -0.00090483   -0.00051715    2.73225850    0.00104219
    0.93750000    0.03750000   -0.00059531   -0.00041077    2.72377160    0.00072328
    0.95000000    0.03750000   -0.00035001   -0.00029628    2.71530781    0.00045857
    0.96250000    0.03750000   -0.00017163   -0.00018045    2.70755141    0.00024904
    0.97500000    0.03750000   -0.00006002   -0.00007539    2.70082415    0.00009636
    0.98750000    0.03750000   -0.00000509   -0.00000458    2.69653562    0.00000685
    1.00000000    0.03750000    0.00000000    0.00000000    2.69256352    0.00000000
    0.00000000    0.05000000    0.00000000    0.00000000    0.02994773    0.00000000
    0.01250000    0.05000000   -0.00003282    0.00018071    0.01382372    0.00018367
    0.02500000    0.05000000   -0.00019920    0.00038067    0.00893366    0.00042964
    0.03750000    0.05000000   -0.00044373    0.00057537    0.00298693    0.00072660
    0.05000000    0.05000000   -0.00076679    0.00074717   -0.00028311    0.00107062
    0.06250000    0.05000000   -0.00115326    0.00089093   -0.00167166    0.00145731
    0.07500000    0.05000000   -0.00159282    0.00100623   -0.00070957    0.00188403
    0.08750000    0.05000000   -0.00207464    0.00109550    0.00265335    0.00234611
    0.10000000    0.05000000   -0.00258938    0.00116225    0.00852856    0.00283825
    0.11250000    0.05000000   -0.00312882    0.00121025    0.01696108    0.00335473
    0.12500000    0.05000000   -0.00368609    0.00124306    0.02797655    0.00389004
    0.13750000    0.05000000   -0.00425550    0.00126381    0.04157896    0.00443920
    0.15000000    0.05000000   -0.00483246    0.00127515    0.05776057    0.00499786
    0.16250000    0.05000000   -0.00541328    0.00127923    0.07650605    0.00556237
    0.17500000    0.05000000   -0.00599505    0.00127772    0.09779631    0.00612969
    0.18750000    0.05000000   -0.00657545    0.00127188    0.12161070    0.00669733
    0.20000000    0.05000000   -0.00715263    0.00126265    0.14792836    0.00726322
    0.21250000    0.05000000   -0.00772507    0.00125064    0.17672871    0.00782565
    0.22500000    0.05000000   -0.00829148    0.00123626    0.20799155    0.00838314
    0.23750000    0.05000000   -0.00885072    0.00121974    0.24169661    0.00893437
    0.25000000    0.05000000   -0.00940174    0.00120114    0.27782302    0.00947816
    0.26250000    0.05000000   -0.00994351    0.00118047    0.31634849    0.01001334
    0.27500000    0.05000000   -0.01047500    0.00115764    0.35724852    0.01053878
    0.28750000    0.05000000   -0.01099515    0.00113253    0.40049542    0.01105332
    0.30000000    0.05000000   -0.01150284    0.00110497    0.44605749    0.01155579
    0.31250000    0.05000000   -0.01199690    0.00107479    0.49389804    0.01204495
    0.32500000    0.05000000   -0.01247608    0.00104181    0.54397445    0.01251951