 TITLE = "NAVIER STOKES 2D - FD"
 VARIABLES = "X" "Y" "U" "V" "P" "U_MAG"
  ZONE F=POINT, I=          81 , J=           81
    0.00000000    0.00000000    0.00000000    0.00000000    0.00000000    0.00000000
    0.01250000    0.00000000    0.00000000    0.00000000   -0.00187271    0.00000000
    0.02500000    0.00000000    0.00000000    0.00000000   -0.00779520    0.00000000
    0.03750000    0.00000000    0.00000000    0.00000000   -0.01536403    0.00000000
    0.05000000    0.00000000    0.00000000    0.00000000   -0.02207913    0.00000000
    0.06250000    0.00000000    0.00000000    0.00000000   -0.02689691    0.00000000
    0.07500000    0.00000000    0.00000000    0.00000000   -0.02926513    0.00000000
    0.08750000    0.00000000    0.00000000    0.00000000   -0.02898011    0.00000000
    0.10000000    0.00000000    0.00000000    0.00000000   -0.02599277    0.00000000
    0.11250000    0.00000000    0.00000000    0.00000000   -0.02034432    0.00000000
    0.12500000    0.00000000    0.00000000    0.00000000   -0.01211353    0.00000000
    0.13750000    0.00000000    0.00000000    0.00000000   -0.00138971    0.00000000
    0.15000000    0.00000000    0.00000000    0.00000000    0.01174257    0.00000000
    0.16250000    0.00000000    0.00000000    0.00000000    0.02721203    0.00000000
    0.17500000    0.00000000    0.00000000    0.00000000    0.04496339    0.00000000
    0.18750000    0.00000000    0.00000000    0.00000000    0.06495542    0.00000000
    0.20000000    0.00000000    0.00000000    0.00000000    0.08715910    0.00000000
    0.21250000    0.00000000    0.00000000    0.00000000    0.11155500    0.00000000
    0.22500000    0.00000000    0.00000000    0.00000000    0.13812951    0.00000000
    0.23750000    0.00000000    0.00000000    0.00000000    0.16687277    0.00000000
    0.25000000    0.00000000    0.00000000    0.00000000    0.19777710    0.00000000
    0.26250000    0.00000000    0.00000000    0.00000000    0.23083501    0.00000000
    0.27500000    0.00000000    0.00000000    0.00000000    0.26603792    0.00000000
    0.28750000    0.00000000    0.00000000    0.00000000    0.30337580    0.00000000
    0.30000000    0.00000000    0.00000000    0.00000000    0.34283604    0.00000000
    0.31250000    0.00000000    0.00000000    0.00000000    0.38440276    0.00000000
    0.32500000    0.00000000    0.00000000    0.00000000    0.42805674    0.00000000
    0.33750000    0.00000000    0.00000000    0.00000000    0.47377467    0.00000000
    0.35000000    0.00000000    0.00000000    0.00000000    0.52152794    0.00000000
    0.36250000    0.00000000    0.00000000    0.00000000    0.57128219    0.00000000
    0.37500000    0.00000000    0.00000000    0.00000000    0.62299745    0.00000000
    0.38750000    0.00000000    0.00000000    0.00000000    0.67662853    0.00000000
    0.40000000    0.00000000    0.00000000    0.00000000    0.73212465    0.00000000
    0.41250000    0.00000000    0.00000000    0.00000000    0.78942791    0.00000000
    0.42500000    0.00000000    0.00000000    0.00000000    0.84847186    0.00000000
    0.43750000    0.00000000    0.00000000    0.00000000    0.90918223    0.00000000
    0.45000000    0.00000000    0.00000000    0.00000000    0.97147789    0.00000000
    0.46250000    0.00000000    0.00000000    0.00000000    1.03526944    0.00000000
    0.47500000    0.00000000    0.00000000    0.00000000    1.10045790    0.00000000
    0.48750000    0.00000000    0.00000000    0.00000000    1.16693508    0.00000000
    0.50000000    0.00000000    0.00000000    0.00000000    1.23458438    0.00000000
    0.51250000    0.00000000    0.00000000    0.00000000    1.30328160    0.00000000
    0.52500000    0.00000000    0.00000000    0.00000000    1.37289359    0.00000000
    0.53750000    0.00000000    0.00000000    0.00000000    1.44327486    0.00000000
    0.55000000    0.00000000    0.00000000    0.00000000    1.51427102    0.00000000
    0.56250000    0.00000000    0.00000000    0.00000000    1.58572353    0.00000000
    0.57500000    0.00000000    0.00000000    0.00000000    1.65746271    0.00000000
    0.58750000    0.00000000    0.00000000    0.00000000    1.72930810    0.00000000
    0.60000000    0.00000000    0.00000000    0.00000000    1.80107723    0.00000000
    0.61250000    0.00000000    0.00000000    0.00000000    1.87257771    0.00000000
    0.62500000    0.00000000    0.00000000    0.00000000    1.94360938    0.00000000
    0.63750000    0.00000000    0.00000000    0.00000000    2.01397159    0.00000000
    0.65000000    0.00000000    0.00000000    0.00000000    2.08345468    0.00000000
    0.66250000    0.00000000    0.00000000    0.00000000    2.15184772    0.00000000
    0.67500000    0.00000000    0.00000000    0.00000000    2.21893832    0.00000000
    0.68750000    0.00000000    0.00000000    0.00000000    2.28451039    0.00000000
    0.70000000    0.00000000    0.00000000    0.00000000    2.34835117    0.00000000
    0.71250000    0.00000000    0.00000000    0.00000000    2.41024635    0.00000000
    0.72500000    0.00000000    0.00000000    0.00000000    2.46998632    0.00000000
    0.73750000    0.00000000    0.00000000    0.00000000    2.52736399    0.00000000
    0.75000000    0.00000000    0.00000000    0.00000000    2.58217762    0.00000000
    0.76250000    0.00000000    0.00000000    0.00000000    2.63423128    0.00000000
    0.77500000    0.00000000    0.00000000    0.00000000    2.68333519    0.00000000
    0.78750000    0.00000000    0.00000000    0.00000000    2.72930712    0.00000000
    0.80000000    0.00000000    0.00000000    0.00000000    2.77197121    0.00000000
    0.81250000    0.00000000    0.00000000    0.00000000    2.81115928    0.00000000
    0.82500000    0.00000000    0.00000000    0.00000000    2.84670895    0.00000000
    0.83750000    0.00000000    0.00000000    0.00000000    2.87846483    0.00000000
    0.85000000    0.00000000    0.00000000    0.00000000    2.90627721    0.00000000
    0.86250000    0.00000000    0.00000000    0.00000000    2.93000479    0.00000000
    0.87500000    0.00000000    0.00000000    0.00000000    2.94951690    0.00000000
    0.88750000    0.00000000    0.00000000    0.00000000    2.96470163    0.00000000
    0.90000000    0.00000000    0.00000000    0.00000000    2.97547691    0.00000000
    0.91250000    0.00000000    0.00000000    0.00000000    2.98181173    0.00000000
    0.92500000    0.00000000    0.00000000    0.00000000    2.98375590    0.00000000
    0.93750000    0.00000000    0.00000000    0.00000000    2.98149647    0.00000000
    0.95000000    0.00000000    0.00000000    0.00000000    2.97542968    0.00000000
    0.96250000    0.00000000    0.00000000    0.00000000    2.96640534    0.00000000
    0.97500000    0.00000000    0.00000000    0.00000000    2.95590844    0.00000000
    0.98750000    0.00000000    0.00000000    0.00000000    2.94745856    0.00000000
    1.00000000    0.00000000    0.00000000    0.00000000    2.94451309    0.00000000
    0.00000000    0.01250000    0.00000000    0.00000000    0.00185273    0.00000000
    0.01250000    0.01250000    0.00000035   -0.00000031   -0.00002339    0.00000047
    0.02500000    0.01250000   -0.00002148    0.00000755   -0.00301160    0.00002277
    0.03750000    0.01250000   -0.00006740    0.00001678   -0.00697694    0.00006946
    0.05000000    0.01250000   -0.00013760    0.00002428   -0.01026501    0.00013973
    0.06250000    0.01250000   -0.00022754    0.00003007   -0.01231605    0.00022952
    0.07500000    0.01250000   -0.00033296    0.00003426   -0.01258809    0.00033472
    0.08750000    0.01250000   -0.00044967    0.00003714   -0.01081408    0.00045120
    0.10000000    0.01250000   -0.00057418    0.00003900   -0.00683106    0.00057550
    0.11250000    0.01250000   -0.00070372    0.00004010   -0.00056798    0.00070487
    0.12500000    0.01250000   -0.00083621    0.00004066    0.00799632    0.00083719
    0.13750000    0.01250000   -0.00097010    0.00004084    0.01885396    0.00097096
    0.15000000    0.01250000   -0.00110435    0.00004077    0.03198368    0.00110510
    0.16250000    0.01250000   -0.00123822    0.00004054    0.04735936    0.00123889
    0.17500000    0.01250000   -0.00137123    0.00004021    0.06495614    0.00137182
    0.18750000    0.01250000   -0.00150304    0.00003981    0.08475264    0.00150357
    0.20000000    0.01250000   -0.00163343    0.00003936    0.10673113    0.00163391
    0.21250000    0.01250000   -0.00176222    0.00003888    0.13087772    0.00176265
    0.22500000    0.01250000   -0.00188925    0.00003836    0.15718152    0.00188964
    0.23750000    0.01250000   -0.00201438    0.00003780    0.18563309    0.00201473
    0.25000000    0.01250000   -0.00213746    0.00003720    0.21622372    0.00213779
    0.26250000    0.01250000   -0.00225835    0.00003655    0.24894465    0.00225864
    0.27500000    0.01250000   -0.00237687    0.00003585    0.28378578    0.00237714
    0.28750000    0.01250000   -0.00249285    0.00003510    0.32073506    0.00249310
    0.30000000    0.01250000   -0.00260611    0.00003429    0.35977817    0.00260634
    0.31250000    0.01250000   -0.00271646    0.00003342    0.40089768    0.00271667
    0.32500000    0.01250000   -0.00282369    0.00003249    0.44407255    0.00282387
    0.33750000    0.01250000   -0.00292758    0.00003149    0.48927772    0.00292775
    0.35000000    0.01250000   -0.00302791    0.00003042    0.53648323    0.00302806
    0.36250000    0.01250000   -0.00312444    0.00002927    0.58565352    0.00312458
    0.37500000    0.01250000   -0.00321694    0.00002805    0.63674767    0.00321707
    0.38750000    0.01250000   -0.00330517    0.00002674    0.68971954    0.00330528
    0.40000000    0.01250000   -0.00338885    0.00002535    0.74451696    0.00338895
    0.41250000    0.01250000   -0.00346774    0.00002388    0.80108035    0.00346782
    0.42500000    0.01250000   -0.00354155    0.00002232    0.85934243    0.00354162
    0.43750000    0.01250000   -0.00361002    0.00002067    0.91922878    0.00361008
    0.45000000    0.01250000   -0.00367287    0.00001894    0.98065773    0.00367292
    0.46250000    0.01250000   -0.00372983    0.00001711    1.04353912    0.00372986
    0.47500000    0.01250000   -0.00378060    0.00001519    1.10777395    0.00378063
    0.48750000    0.01250000   -0.00382491    0.00001318    1.17325454    0.00382493
    0.50000000    0.01250000   -0.00386249    0.00001108    1.23986492    0.00386250
    0.51250000    0.01250000   -0.00389305    0.00000889    1.30748156    0.00389306
    0.52500000    0.01250000   -0.00391634    0.00000662    1.37597147    0.00391634
    0.53750000    0.01250000   -0.00393208    0.00000426    1.44519034    0.00393208
    0.55000000    0.01250000   -0.00394004    0.00000182    1.51498732    0.00394004
    0.56250000    0.01250000   -0.00393997   -0.00000070    1.58520549    0.00393997
    0.57500000    0.01250000   -0.00393166   -0.00000329    1.65567611    0.00393166
    0.58750000    0.01250000   -0.00391490   -0.00000594    1.72622397    0.00391491
    0.60000000    0.01250000   -0.00388952   -0.00000865    1.79666946    0.00388953
    0.61250000    0.01250000   -0.00385535   -0.00001140    1.86682220    0.00385537
    0.62500000    0.01250000   -0.00381227   -0.00001420    1.93648864    0.00381230
    0.63750000    0.01250000   -0.00376017   -0.00001703    2.00547110    0.00376021
    0.65000000    0.01250000   -0.00369898   -0.00001988    2.07356473    0.00369903
    0.66250000    0.01250000   -0.00362866   -0.00002274    2.14056525    0.00362873
    0.67500000    0.01250000   -0.00354920   -0.00002560    2.20626387    0.00354929
    0.68750000    0.01250000   -0.00346063   -0.00002844    2.27045182    0.00346075
    0.70000000    0.01250000   -0.00336303   -0.00003126    2.33292122    0.00336318
    0.71250000    0.01250000   -0.00325651   -0.00003404    2.39346427    0.00325669
    0.72500000    0.01250000   -0.00314121   -0.00003676    2.45187762    0.00314142
    0.73750000    0.01250000   -0.00301731   -0.00003942    2.50796011    0.00301757
    0.75000000    0.01250000   -0.00288506   -0.00004200    2.56151714    0.00288537
    0.76250000    0.01250000   -0.00274473   -0.00004449    2.61235895    0.00274509
    0.77500000    0.01250000   -0.00259664   -0.00004687    2.66030399    0.00259706
    0.78750000    0.01250000   -0.00244115   -0.00004913    2.70517802    0.00244165
    0.80000000    0.01250000   -0.00227871   -0.00005124    2.74681661    0.00227929
    0.81250000    0.01250000   -0.00210983   -0.00005318    2.78506497    0.00211050
    0.82500000    0.01250000   -0.00193514   -0.00005491    2.81978028    0.00193591
    0.83750000    0.01250000   -0.00175538   -0.00005639    2.85083272    0.00175628
    0.85000000    0.01250000   -0.00157152   -0.00005753    2.87810895    0.00157258
    0.86250000    0.01250000   -0.00138480   -0.00005826    2.90151567    0.00138602
    0.87500000    0.01250000   -0.00119678   -0.00005843    2.92098667    0.00119820
    0.88750000    0.01250000   -0.00100952   -0.00005788    2.93649167    0.00101118
    0.90000000    0.01250000   -0.00082564   -0.00005640    2.94805035    0.00082757
    0.91250000    0.01250000   -0.00064847   -0.00005374    2.95575205    0.00065069
    0.92500000    0.01250000   -0.00048214   -0.00004958    2.95977955    0.00048468
    0.93750000    0.01250000   -0.00033158   -0.00004359    2.96045883    0.00033444
    0.95000000    0.01250000   -0.00020265   -0.00003540    2.95826629    0.00020572
    0.96250000    0.01250000   -0.00010124   -0.00002484    2.95405178    0.00010424
    0.97500000    0.01250000   -0.00003383   -0.00001179    2.94865708    0.00003582
    0.98750000    0.01250000   -0.00000040   -0.00000037    2.94449060    0.00000054
    1.00000000    0.01250000    0.00000000    0.00000000    2.94156751    0.00000000
    0.00000000    0.02500000    0.00000000    0.00000000    0.00781918    0.00000000
    0.01250000    0.02500000   -0.00000759    0.00002153    0.00296552    0.00002283
    0.02500000    0.02500000   -0.00006287    0.00006247   -0.00002682    0.00008863
    0.03750000    0.02500000   -0.00015700    0.00010737   -0.00386984    0.00019020
    0.05000000    0.02500000   -0.00029080    0.00014686   -0.00668085    0.00032578
    0.06250000    0.02500000   -0.00045718    0.00017881   -0.00823787    0.00049090
    0.07500000    0.02500000   -0.00064969    0.00020298   -0.00804590    0.00068066
    0.08750000    0.02500000   -0.00086171    0.00022029   -0.00588849    0.00088942
    0.10000000    0.02500000   -0.00108755    0.00023194   -0.00161016    0.00111201
    0.11250000    0.02500000   -0.00132256    0.00023919    0.00486307    0.00134401
    0.12500000    0.02500000   -0.00156310    0.00024315    0.01356384    0.00158190
    0.13750000    0.02500000   -0.00180646    0.00024477    0.02449717    0.00182297
    0.15000000    0.02500000   -0.00205068    0.00024475    0.03765436    0.00206523
    0.16250000    0.02500000   -0.00229438    0.00024362    0.05302061    0.00230728
    0.17500000    0.02500000   -0.00253660    0.00024174    0.07057983    0.00254809
    0.18750000    0.02500000   -0.00277667    0.00023935    0.09031723    0.00278696
    0.20000000    0.02500000   -0.00301408    0.00023658    0.11222011    0.00302335
    0.21250000    0.02500000   -0.00324847    0.00023350    0.13627785    0.00325686
    0.22500000    0.02500000   -0.00347951    0.00023015    0.16248155    0.00348712
    0.23750000    0.02500000   -0.00370690    0.00022653    0.19082326    0.00371382
    0.25000000    0.02500000   -0.00393034    0.00022264    0.22129509    0.00393665
    0.26250000    0.02500000   -0.00414955    0.00021845    0.25388862    0.00415529
    0.27500000    0.02500000   -0.00436420    0.00021395    0.28859407    0.00436944
    0.28750000    0.02500000   -0.00457398    0.00020913    0.32539959    0.00457876
    0.30000000    0.02500000   -0.00477855    0.00020396    0.36429076    0.00478290
    0.31250000    0.02500000   -0.00497754    0.00019843    0.40525015    0.00498150
    0.32500000    0.02500000   -0.00517060    0.00019251    0.44825671    0.00517418
    0.33750000    0.02500000   -0.00535733    0.00018620    0.49328515    0.00536056
    0.35000000    0.02500000   -0.00553733    0.00017947    0.54030533    0.00554024
    0.36250000    0.02500000   -0.00571020    0.00017231    0.58928184    0.00571280
    0.37500000    0.02500000   -0.00587551    0.00016470    0.64017395    0.00587781
    0.38750000    0.02500000   -0.00603282    0.00015663    0.69293562    0.00603485
    0.40000000    0.02500000   -0.00618168    0.00014809    0.74751449    0.00618345
    0.41250000    0.02500000   -0.00632163    0.00013906    0.80385076    0.00632316
    0.42500000    0.02500000   -0.00645221    0.00012955    0.86187725    0.00645352
    0.43750000    0.02500000   -0.00657295    0.00011954    0.92151993    0.00657404
    0.45000000    0.02500000   -0.00668337    0.00010902    0.98269718    0.00668426
    0.46250000    0.02500000   -0.00678299    0.00009799    1.04531875    0.00678370
    0.47500000    0.02500000   -0.00687132    0.00008645    1.10928580    0.00687187
    0.48750000    0.02500000   -0.00694790    0.00007441    1.17449118    0.00694830
    0.50000000    0.02500000   -0.00701225    0.00006186    1.24081953    0.00701252
    0.51250000    0.02500000   -0.00706390    0.00004883    1.30814731    0.00706407
    0.52500000    0.02500000   -0.00710240    0.00003531    1.37634097    0.00710249
    0.53750000    0.02500000   -0.00712733    0.00002134    1.44525742    0.00712736
    0.55000000    0.02500000   -0.00713825    0.00000692    1.51474736    0.00713825
    0.56250000    0.02500000   -0.00713478   -0.00000791    1.58465279    0.00713479
    0.57500000    0.02500000   -0.00711656   -0.00002312    1.65480552    0.00711659
    0.58750000    0.02500000   -0.00708324   -0.00003867    1.72503229    0.00708335
    0.60000000    0.02500000   -0.00703454   -0.00005453    1.79515249    0.00703475
    0.61250000    0.02500000   -0.00697020   -0.00007065    1.86497720    0.00697056
    0.62500000    0.02500000   -0.00689001   -0.00008699    1.93431438    0.00689056
    0.63750000    0.02500000   -0.00679380   -0.00010348    2.00296561    0.00679459
    0.65000000    0.02500000   -0.00668148   -0.00012007    2.07072838    0.00668256
    0.66250000    0.02500000   -0.00655298   -0.00013671    2.13739852    0.00655440
    0.67500000    0.02500000   -0.00640831   -0.00015331    2.20276826    0.00641014
    0.68750000    0.02500000   -0.00624755   -0.00016983    2.26663040    0.00624986
    0.70000000    0.02500000   -0.00607083   -0.00018618    2.32877727    0.00607369
    0.71250000    0.02500000   -0.00587836   -0.00020229    2.38900306    0.00588184
    0.72500000    0.02500000   -0.00567041   -0.00021810    2.44710484    0.00567460
    0.73750000    0.02500000   -0.00544731   -0.00023352    2.50288333    0.00545232
    0.75000000    0.02500000   -0.00520949   -0.00024849    2.55614490    0.00521542
    0.76250000    0.02500000   -0.00495745   -0.00026291    2.60670180    0.00496441
    0.77500000    0.02500000   -0.00469175   -0.00027670    2.65437424    0.00469990
    0.78750000    0.02500000   -0.00441307   -0.00028975    2.69899062    0.00442257
    0.80000000    0.02500000   -0.00412219   -0.00030193    2.74038963    0.00413324
    0.81250000    0.02500000   -0.00382006   -0.00031309    2.77842072    0.00383287
    0.82500000    0.02500000   -0.00350779   -0.00032298    2.81294662    0.00352263
    0.83750000    0.02500000   -0.00318678   -0.00033131    2.84384479    0.00320395
    0.85000000    0.02500000   -0.00285874   -0.00033765    2.87101128    0.00287861
    0.86250000    0.02500000   -0.00252590   -0.00034144    2.89436458    0.00254887
    0.87500000    0.02500000   -0.00219106   -0.00034193    2.91385257    0.00221758
    0.88750000    0.02500000   -0.00185781   -0.00033818    2.92946093    0.00188834
    0.90000000    0.02500000   -0.00153072   -0.00032905    2.94122556    0.00156568
    0.91250000    0.02500000   -0.00121542   -0.00031317    2.94924979    0.00125512
    0.92500000    0.02500000   -0.00091881   -0.00028908    2.95372110    0.00096322
    0.93750000    0.02500000   -0.00064893   -0.00025534    2.95495766    0.00069736
    0.95000000    0.02500000   -0.00041499   -0.00021083    2.95337321    0.00046548
    0.96250000    0.02500000   -0.00022590   -0.00015574    2.94976114    0.00027438
    0.97500000    0.02500000   -0.00009168   -0.00009263    2.94450773    0.00013033
    0.98750000    0.02500000   -0.00001157   -0.00003372    2.94033479    0.00003565
    1.00000000    0.02500000    0.00000000    0.00000000    2.93323255    0.00000000
    0.00000000    0.03750000    0.00000000    0.00000000    0.01550417    0.00000000
    0.01250000    0.03750000   -0.00001706    0.00006794    0.00692501    0.00007005
    0.02500000    0.03750000   -0.00010910    0.00015693    0.00378832    0.00019113
    0.03750000    0.03750000   -0.00025059    0.00024802   -0.00007326    0.00035257
    0.05000000    0.03750000   -0.00044224    0.00032825   -0.00239322    0.00055075
    0.06250000    0.03750000   -0.00067459    0.00039387   -0.00338604    0.00078115
    0.07500000    0.03750000   -0.00094000    0.00044432   -0.00263322    0.00103972
    0.08750000    0.03750000   -0.00123045    0.00048104    0.00000345    0.00132114
    0.10000000    0.03750000   -0.00153898    0.00050622    0.00465986    0.00162010
    0.11250000    0.03750000   -0.00185973    0.00052222    0.01140762    0.00193166
    0.12500000    0.03750000   -0.00218803    0.00053124    0.02028967    0.00225159
    0.13750000    0.03750000   -0.00252031    0.00053514    0.03132562    0.00257650
    0.15000000    0.03750000   -0.00285394    0.00053541    0.04452207    0.00290373
    0.16250000    0.03750000   -0.00318699    0.00053315    0.05987770    0.00323128
    0.17500000    0.03750000   -0.00351809    0.00052914    0.07738772    0.00355766
    0.18750000    0.03750000   -0.00384623    0.00052387    0.09704617    0.00388175
    0.20000000    0.03750000   -0.00417069    0.00051768    0.11884674    0.00420269
    0.21250000    0.03750000   -0.00449086    0.00051074    0.14278347    0.00451981
    0.22500000    0.03750000   -0.00480626    0.00050312    0.16885075    0.00483253
    0.23750000    0.03750000   -0.00511644    0.00049488    0.19704268    0.00514032
    0.25000000    0.03750000   -0.00542097    0.00048599    0.22735275    0.00544271
    0.26250000    0.03750000   -0.00571941    0.00047644    0.25977344    0.00573922
    0.27500000    0.03750000   -0.00601132    0.00046620    0.29429544    0.00602937
    0.28750000    0.03750000   -0.00629626    0.00045523    0.33090722    0.00631270
    0.30000000    0.03750000   -0.00657375    0.00044350    0.36959468    0.00658869
    0.31250000    0.03750000   -0.00684331    0.00043098    0.41034057    0.00685687
    0.32500000    0.03750000   -0.00710443    0.00041762    0.45312393    0.00711670
    0.33750000    0.03750000   -0.00735660    0.00040341    0.49791955    0.00736765
    0.35000000    0.03750000   -0.00759928    0.00038829    0.54469738    0.00760919
    0.36250000    0.03750000   -0.00783191    0.00037226    0.59342219    0.00784076
    0.37500000    0.03750000   -0.00805395    0.00035527    0.64405366    0.00806178
    0.38750000    0.03750000   -0.00826479    0.00033730    0.69654595    0.00827167
    0.40000000    0.03750000   -0.00846386    0.00031832    0.75084656    0.00846985
    0.41250000    0.03750000   -0.00865056    0.00029833    0.80689573    0.00865570
    0.42500000    0.03750000   -0.00882427    0.00027730    0.86462683    0.00882862
    0.43750000    0.03750000   -0.00898437    0.00025521    0.92396620    0.00898800
    0.45000000    0.03750000   -0.00913026    0.00023207    0.98483225    0.00913321
    0.46250000    0.03750000   -0.00926130    0.00020786    1.04713481    0.00926363
    0.47500000    0.03750000   -0.00937688    0.00018258    1.11077558    0.00937866
    0.48750000    0.03750000   -0.00947639    0.00015625    1.17564808    0.00947768
    0.50000000    0.03750000   -0.00955922    0.00012888    1.24163737    0.00956009
    0.51250000    0.03750000   -0.00962477    0.00010049    1.30861960    0.00962530
    0.52500000    0.03750000   -0.00967248    0.00007111    1.37646165    0.00967274
    0.53750000    0.03750000   -0.00970178    0.00004078    1.44502200    0.00970187
    0.55000000    0.03750000   -0.00971217    0.00000955    1.51415129    0.00971217
    0.56250000    0.03750000   -0.00970313   -0.00002253    1.58369123    0.00970316
    0.57500000    0.03750000   -0.00967422   -0.00005539    1.65347542    0.00967438
    0.58750000    0.03750000   -0.00962503   -0.00008895    1.72333062    0.00962544
    0.60000000    0.03750000   -0.00955519   -0.00012312    1.79307631    0.00955598
    0.61250000    0.03750000   -0.00946439   -0.00015783    1.86252545    0.00946570
    0.62500000    0.03750000   -0.00935237   -0.00019295    1.93148568    0.00935436
    0.63750000    0.03750000   -0.00921896   -0.00022837    1.99975965    0.00922179
    0.65000000    0.03750000   -0.00906404   -0.00026398    2.06714590    0.00906788
    0.66250000    0.03750000   -0.00888755   -0.00029965    2.13344043    0.00889260
    0.67500000    0.03750000   -0.00868954   -0.00033523    2.19843697    0.00869601
    0.68750000    0.03750000   -0.00847013   -0.00037060    2.26192867    0.00847823
    0.70000000    0.03750000   -0.00822950   -0.00040559    2.32370918    0.00823949
    0.71250000    0.03750000   -0.00796796   -0.00044006    2.38357356    0.00798010
    0.72500000    0.03750000   -0.00768587   -0.00047385    2.44132007    0.00770046
    0.73750000    0.03750000   -0.00738371   -0.00050681    2.49675075    0.00740109
    0.75000000    0.03750000   -0.00706206   -0.00053876    2.54967340    0.00708258
    0.76250000    0.03750000   -0.00672158   -0.00056954    2.59990221    0.00674566
    0.77500000    0.03750000   -0.00636305   -0.00059895    2.64725955    0.00639118
    0.78750000    0.03750000   -0.00598740   -0.00062675    2.69157701    0.00602011
    0.80000000    0.03750000   -0.00559569   -0.00065265    2.73269706    0.00563362
    0.81250000    0.03750000   -0.00518920   -0.00067631    2.77047467    0.00523308
    0.82500000    0.03750000   -0.00476945   -0.00069721    2.80477944    0.00482014
    0.83750000    0.03750000   -0.00433834   -0.00071468    2.83549831    0.00439682
    0.85000000    0.03750000   -0.00389820   -0.00072784    2.86253908    0.00396557
    0.86250000    0.03750000   -0.00345198   -0.00073548    2.88583516    0.00352946
    0.87500000    0.03750000   -0.00300342   -0.00073607    2.90535169    0.00309230
    0.88750000    0.03750000   -0.00255720   -0.00072767    2.92109374    0.00265872
    0.90000000    0.03750000   -0.00211920   -0.00070798    2.93311569    0.00223434
    0.91250000    0.03750000   -0.00169659   -0.00067438    2.94153532    0.00182570
    0.92500000    0.03750000   -0.00129794   -0.00062408    2.94653988    0.00144019
    0.93750000    0.03750000   -0.00093309   -0.00055453    2.94842739    0.00108543
    0.95000000    0.03750000   -0.00061312   -0.00046397    2.94751905    0.00076889
    0.96250000    0.03750000   -0.00034854   -0.00035300    2.94451577    0.00049607
    0.97500000    0.03750000   -0.00015241   -0.00022617    2.93923930    0.00027273
    0.98750000    0.03750000   -0.00002408   -0.00010001    2.93490364    0.00010287
    1.00000000    0.03750000    0.00000000    0.00000000    2.92291770    0.00000000
    0.00000000    0.05000000    0.00000000    0.00000000    0.02240039    0.00000000
    0.01250000    0.05000000   -0.00002503    0.00013966    0.01018596    0.00014189
    0.02500000    0.05000000   -0.00015103    0.00029265    0.00654770    0.00032933
    0.03750000    0.05000000   -0.00033564    0.00044055    0.00216338    0.00055384
    0.05000000    0.05000000   -0.00057868    0.00056960   -0.00015892    0.00081199
    0.06250000    0.05000000   -0.00086801    0.00067538   -0.00100919    0.00109981
    0.07500000    0.05000000   -0.00119495    0.00075736   -0.00002142    0.00141474
    0.08750000    0.05000000   -0.00155045    0.00081764    0.00285945    0.00175284
    0.10000000    0.05000000   -0.00192677    0.00085946    0.00773474    0.00210977
    0.11250000    0.05000000   -0.00231729    0.00088640    0.01465699    0.00248104
    0.12500000    0.05000000   -0.00271670    0.00090186    0.02366367    0.00286248
    0.13750000    0.05000000   -0.00312086    0.00090878    0.03477520    0.00325048
    0.15000000    0.05000000   -0.00352665    0.00090951    0.04800325    0.00364204
    0.16250000    0.05000000   -0.00393175    0.00090586    0.06335309    0.00403476
    0.17500000    0.05000000   -0.00433448    0.00089909    0.08082612    0.00442674
    0.18750000    0.05000000   -0.00473356    0.00089007    0.10042210    0.00481651
    0.20000000    0.05000000   -0.00512804    0.00087935    0.12213974    0.00520289
    0.21250000    0.05000000   -0.00551716    0.00086725    0.14597677    0.00558490
    0.22500000    0.05000000   -0.00590026    0.00085392    0.17193052    0.00596173
    0.23750000    0.05000000   -0.00627676    0.00083945    0.19999762    0.00633264
    0.25000000    0.05000000   -0.00664610    0.00082385    0.23017331    0.00669697
    0.26250000    0.05000000   -0.00700774    0.00080708    0.26245138    0.00705407
    0.27500000    0.05000000   -0.00736113    0.00078912    0.29682380    0.00740331
    0.28750000    0.05000000   -0.00770571    0.00076991    0.33327994    0.00774407
    0.30000000    0.05000000   -0.00804089    0.00074940    0.37180638    0.00807574
    0.31250000    0.05000000   -0.00836610    0.00072754    0.41238665    0.00839767
    0.32500000    0.05000000   -0.00868071    0.00070428    0.45500044    0.00870924