 TITLE = "NAVIER STOKES 2D - FD"
 VARIABLES = "X" "Y" "U" "V" "P" "U_MAG"
  ZONE F=POINT, I=          81 , J=           81
    0.00000000    0.00000000    0.00000000    0.00000000    0.00000000    0.00000000
    0.01250000    0.00000000    0.00000000    0.00000000   -0.00703336    0.00000000
    0.02500000    0.00000000    0.00000000    0.00000000   -0.01465390    0.00000000
    0.03750000    0.00000000    0.00000000    0.00000000   -0.01925296    0.00000000
    0.05000000    0.00000000    0.00000000    0.00000000   -0.01843330    0.00000000
    0.06250000    0.00000000    0.00000000    0.00000000   -0.01246193    0.00000000
    0.07500000    0.00000000    0.00000000    0.00000000   -0.00168911    0.00000000
    0.08750000    0.00000000    0.00000000    0.00000000    0.01354810    0.00000000
    0.10000000    0.00000000    0.00000000    0.00000000    0.03306512    0.00000000
    0.11250000    0.00000000    0.00000000    0.00000000    0.05675147    0.00000000
    0.12500000    0.00000000    0.00000000    0.00000000    0.08453892    0.00000000
    0.13750000    0.00000000    0.00000000    0.00000000    0.11637464    0.00000000
    0.15000000    0.00000000    0.00000000    0.00000000    0.15220558    0.00000000
    0.16250000    0.00000000    0.00000000    0.00000000    0.19197683    0.00000000
    0.17500000    0.00000000    0.00000000    0.00000000    0.23563106    0.00000000
    0.18750000    0.00000000    0.00000000    0.00000000    0.28310326    0.00000000
    0.20000000    0.00000000    0.00000000    0.00000000    0.33432197    0.00000000
    0.21250000    0.00000000    0.00000000    0.00000000    0.38921130    0.00000000
    0.22500000    0.00000000    0.00000000    0.00000000    0.44768794    0.00000000
    0.23750000    0.00000000    0.00000000    0.00000000    0.50966296    0.00000000
    0.25000000    0.00000000    0.00000000    0.00000000    0.57504524    0.00000000
    0.26250000    0.00000000    0.00000000    0.00000000    0.64373787    0.00000000
    0.27500000    0.00000000    0.00000000    0.00000000    0.71563554    0.00000000
    0.28750000    0.00000000    0.00000000    0.00000000    0.79062760    0.00000000
    0.30000000    0.00000000    0.00000000    0.00000000    0.86860044    0.00000000
    0.31250000    0.00000000    0.00000000    0.00000000    0.94943752    0.00000000
    0.32500000    0.00000000    0.00000000    0.00000000    1.03301556    0.00000000
    0.33750000    0.00000000    0.00000000    0.00000000    1.11919926    0.00000000
    0.35000000    0.00000000    0.00000000    0.00000000    1.20784789    0.00000000
    0.36250000    0.00000000    0.00000000    0.00000000    1.29882634    0.00000000
    0.37500000    0.00000000    0.00000000    0.00000000    1.39199565    0.00000000
    0.38750000    0.00000000    0.00000000    0.00000000    1.48720065    0.00000000
    0.40000000    0.00000000    0.00000000    0.00000000    1.58428422    0.00000000
    0.41250000    0.00000000    0.00000000    0.00000000    1.68309475    0.00000000
    0.42500000    0.00000000    0.00000000    0.00000000    1.78346974    0.00000000
    0.43750000    0.00000000    0.00000000    0.00000000    1.88524003    0.00000000
    0.45000000    0.00000000    0.00000000    0.00000000    1.98824080    0.00000000
    0.46250000    0.00000000    0.00000000    0.00000000    2.09229950    0.00000000
    0.47500000    0.00000000    0.00000000    0.00000000    2.19723851    0.00000000
    0.48750000    0.00000000    0.00000000    0.00000000    2.30288142    0.00000000
    0.50000000    0.00000000    0.00000000    0.00000000    2.40904506    0.00000000
    0.51250000    0.00000000    0.00000000    0.00000000    2.51554563    0.00000000
    0.52500000    0.00000000    0.00000000    0.00000000    2.62219766    0.00000000
    0.53750000    0.00000000    0.00000000    0.00000000    2.72881110    0.00000000
    0.55000000    0.00000000    0.00000000    0.00000000    2.83519776    0.00000000
    0.56250000    0.00000000    0.00000000    0.00000000    2.94116640    0.00000000
    0.57500000    0.00000000    0.00000000    0.00000000    3.04652454    0.00000000
    0.58750000    0.00000000    0.00000000    0.00000000    3.15108027    0.00000000
    0.60000000    0.00000000    0.00000000    0.00000000    3.25464052    0.00000000
    0.61250000    0.00000000    0.00000000    0.00000000    3.35701295    0.00000000
    0.62500000    0.00000000    0.00000000    0.00000000    3.45800420    0.00000000
    0.63750000    0.00000000    0.00000000    0.00000000    3.55742264    0.00000000
    0.65000000    0.00000000    0.00000000    0.00000000    3.65507778    0.00000000
    0.66250000    0.00000000    0.00000000    0.00000000    3.75077997    0.00000000
    0.67500000    0.00000000    0.00000000    0.00000000    3.84434265    0.00000000
    0.68750000    0.00000000    0.00000000    0.00000000    3.93558146    0.00000000
    0.70000000    0.00000000    0.00000000    0.00000000    4.02431610    0.00000000
    0.71250000    0.00000000    0.00000000    0.00000000    4.11036802    0.00000000
    0.72500000    0.00000000    0.00000000    0.00000000    4.19356361    0.00000000
    0.73750000    0.00000000    0.00000000    0.00000000    4.27373234    0.00000000
    0.75000000    0.00000000    0.00000000    0.00000000    4.35070929    0.00000000
    0.76250000    0.00000000    0.00000000    0.00000000    4.42433332    0.00000000
    0.77500000    0.00000000    0.00000000    0.00000000    4.49445060    0.00000000
    0.78750000    0.00000000    0.00000000    0.00000000    4.56091272    0.00000000
    0.80000000    0.00000000    0.00000000    0.00000000    4.62357896    0.00000000
    0.81250000    0.00000000    0.00000000    0.00000000    4.68231412    0.00000000
    0.82500000    0.00000000    0.00000000    0.00000000    4.73699160    0.00000000
    0.83750000    0.00000000    0.00000000    0.00000000    4.78749123    0.00000000
    0.85000000    0.00000000    0.00000000    0.00000000    4.83370164    0.00000000
    0.86250000    0.00000000    0.00000000    0.00000000    4.87551839    0.00000000
    0.87500000    0.00000000    0.00000000    0.00000000    4.91284607    0.00000000
    0.88750000    0.00000000    0.00000000    0.00000000    4.94559477    0.00000000
    0.90000000    0.00000000    0.00000000    0.00000000    4.97367612    0.00000000
    0.91250000    0.00000000    0.00000000    0.00000000    4.99699074    0.00000000
    0.92500000    0.00000000    0.00000000    0.00000000    5.01540185    0.00000000
    0.93750000    0.00000000    0.00000000    0.00000000    5.02869853    0.00000000
    0.95000000    0.00000000    0.00000000    0.00000000    5.03652387    0.00000000
    0.96250000    0.00000000    0.00000000    0.00000000    5.03851760    0.00000000
    0.97500000    0.00000000    0.00000000    0.00000000    5.03441054    0.00000000
    0.98750000    0.00000000    0.00000000    0.00000000    5.02669903    0.00000000
    1.00000000    0.00000000    0.00000000    0.00000000    5.01916009    0.00000000
    0.00000000    0.01250000    0.00000000    0.00000000    0.00702550    0.00000000
    0.01250000    0.01250000   -0.00001244    0.00001246   -0.00001405    0.00001760
    0.02500000    0.01250000   -0.00007932    0.00002564   -0.00250775    0.00008336
    0.03750000    0.01250000   -0.00017103    0.00003452   -0.00369404    0.00017448
    0.05000000    0.01250000   -0.00027990    0.00003828   -0.00082035    0.00028250
    0.06250000    0.01250000   -0.00039552    0.00003966    0.00600936    0.00039751
    0.07500000    0.01250000   -0.00051369    0.00003989    0.01705713    0.00051524
    0.08750000    0.01250000   -0.00063207    0.00003970    0.03227955    0.00063332
    0.10000000    0.01250000   -0.00074974    0.00003933    0.05165547    0.00075077
    0.11250000    0.01250000   -0.00086624    0.00003888    0.07514015    0.00086711
    0.12500000    0.01250000   -0.00098132    0.00003838    0.10268875    0.00098207
    0.13750000    0.01250000   -0.00109480    0.00003782    0.13425504    0.00109545
    0.15000000    0.01250000   -0.00120649    0.00003720    0.16979026    0.00120706
    0.16250000    0.01250000   -0.00131623    0.00003653    0.20923899    0.00131673
    0.17500000    0.01250000   -0.00142383    0.00003581    0.25254245    0.00142428
    0.18750000    0.01250000   -0.00152914    0.00003503    0.29963729    0.00152954
    0.20000000    0.01250000   -0.00163198    0.00003420    0.35045231    0.00163234
    0.21250000    0.01250000   -0.00173220    0.00003331    0.40491105    0.00173252
    0.22500000    0.01250000   -0.00182963    0.00003236    0.46293269    0.00182992
    0.23750000    0.01250000   -0.00192412    0.00003137    0.52442972    0.00192437
    0.25000000    0.01250000   -0.00201551    0.00003032    0.58931013    0.00201574
    0.26250000    0.01250000   -0.00210367    0.00002922    0.65747798    0.00210387
    0.27500000    0.01250000   -0.00218844    0.00002808    0.72882905    0.00218862
    0.28750000    0.01250000   -0.00226969    0.00002689    0.80325218    0.00226985
    0.30000000    0.01250000   -0.00234730    0.00002566    0.88063562    0.00234744
    0.31250000    0.01250000   -0.00242112    0.00002438    0.96086529    0.00242124
    0.32500000    0.01250000   -0.00249104    0.00002307    1.04381609    0.00249114
    0.33750000    0.01250000   -0.00255694    0.00002172    1.12935177    0.00255703
    0.35000000    0.01250000   -0.00261872    0.00002033    1.21733633    0.00261880
    0.36250000    0.01250000   -0.00267628    0.00001890    1.30763712    0.00267634
    0.37500000    0.01250000   -0.00272950    0.00001744    1.40011152    0.00272955
    0.38750000    0.01250000   -0.00277831    0.00001595    1.49460538    0.00277835
    0.40000000    0.01250000   -0.00282261    0.00001442    1.59096766    0.00282265
    0.41250000    0.01250000   -0.00286233    0.00001288    1.68904547    0.00286236
    0.42500000    0.01250000   -0.00289739    0.00001130    1.78867433    0.00289741
    0.43750000    0.01250000   -0.00292773    0.00000970    1.88969020    0.00292775
    0.45000000    0.01250000   -0.00295328    0.00000808    1.99192813    0.00295330
    0.46250000    0.01250000   -0.00297400    0.00000645    2.09521382    0.00297401
    0.47500000    0.01250000   -0.00298983    0.00000479    2.19937393    0.00298983
    0.48750000    0.01250000   -0.00300073    0.00000312    2.30423217    0.00300074
    0.50000000    0.01250000   -0.00300668    0.00000144    2.40960541    0.00300668
    0.51250000    0.01250000   -0.00300763   -0.00000025    2.51531221    0.00300763
    0.52500000    0.01250000   -0.00300359   -0.00000194    2.62116757    0.00300359
    0.53750000    0.01250000   -0.00299452   -0.00000364    2.72698384    0.00299452
    0.55000000    0.01250000   -0.00298044   -0.00000534    2.83257322    0.00298044
    0.56250000    0.01250000   -0.00296134   -0.00000704    2.93774562    0.00296135
    0.57500000    0.01250000   -0.00293724   -0.00000874    3.04231104    0.00293725
    0.58750000    0.01250000   -0.00290816   -0.00001043    3.14607757    0.00290818
    0.60000000    0.01250000   -0.00287412   -0.00001211    3.24885342    0.00287415
    0.61250000    0.01250000   -0.00283516   -0.00001378    3.35044753    0.00283520
    0.62500000    0.01250000   -0.00279133   -0.00001543    3.45066793    0.00279138
    0.63750000    0.01250000   -0.00274268   -0.00001706    3.54932437    0.00274273
    0.65000000    0.01250000   -0.00268927   -0.00001868    3.64622750    0.00268933
    0.66250000    0.01250000   -0.00263116   -0.00002027    3.74119037    0.00263124
    0.67500000    0.01250000   -0.00256845   -0.00002183    3.83402730    0.00256854
    0.68750000    0.01250000   -0.00250121   -0.00002336    3.92455537    0.00250132
    0.70000000    0.01250000   -0.00242954   -0.00002486    4.01259501    0.00242967
    0.71250000    0.01250000   -0.00235356   -0.00002632    4.09796955    0.00235371
    0.72500000    0.01250000   -0.00227337   -0.00002774    4.18050614    0.00227353
    0.73750000    0.01250000   -0.00218909   -0.00002912    4.26003584    0.00218928
    0.75000000    0.01250000   -0.00210086   -0.00003045    4.33639533    0.00210108
    0.76250000    0.01250000   -0.00200883   -0.00003173    4.40942565    0.00200908
    0.77500000    0.01250000   -0.00191313   -0.00003296    4.47897397    0.00191342
    0.78750000    0.01250000   -0.00181394   -0.00003413    4.54489318    0.00181426
    0.80000000    0.01250000   -0.00171140   -0.00003525    4.60704343    0.00171177
    0.81250000    0.01250000   -0.00160571   -0.00003630    4.66529105    0.00160612
    0.82500000    0.01250000   -0.00149704   -0.00003729    4.71950983    0.00149751
    0.83750000    0.01250000   -0.00138558   -0.00003821    4.76958106    0.00138611
    0.85000000    0.01250000   -0.00127152   -0.00003907    4.81539413    0.00127212
    0.86250000    0.01250000   -0.00115507   -0.00003986    4.85684630    0.00115576
    0.87500000    0.01250000   -0.00103643   -0.00004058    4.89384242    0.00103722
    0.88750000    0.01250000   -0.00091580   -0.00004123    4.92629562    0.00091673
    0.90000000    0.01250000   -0.00079343   -0.00004181    4.95412520    0.00079453
    0.91250000    0.01250000   -0.00066960   -0.00004228    4.97725838    0.00067094
    0.92500000    0.01250000   -0.00054483   -0.00004255    4.99562464    0.00054649
    0.93750000    0.01250000   -0.00042013   -0.00004236    5.00918484    0.00042226
    0.95000000    0.01250000   -0.00029798   -0.00004095    5.01788932    0.00030078
    0.96250000    0.01250000   -0.00018278   -0.00003704    5.02201125    0.00018650
    0.97500000    0.01250000   -0.00008542   -0.00002778    5.02145926    0.00008982
    0.98750000    0.01250000   -0.00001386   -0.00001387    5.01915763    0.00001961
    1.00000000    0.01250000    0.00000000    0.00000000    5.01162150    0.00000000
    0.00000000    0.02500000    0.00000000    0.00000000    0.01468417    0.00000000
    0.01250000    0.02500000   -0.00002572    0.00007937    0.00247905    0.00008343
    0.02500000    0.02500000   -0.00014333    0.00014293   -0.00001458    0.00020242
    0.03750000    0.02500000   -0.00029591    0.00018324   -0.00139090    0.00034805
    0.05000000    0.02500000   -0.00047353    0.00020331    0.00162760    0.00051533
    0.06250000    0.02500000   -0.00066108    0.00021157    0.00853025    0.00069411
    0.07500000    0.02500000   -0.00085250    0.00021379    0.01962433    0.00087889
    0.08750000    0.02500000   -0.00104428    0.00021328    0.03485584    0.00106584
    0.10000000    0.02500000   -0.00123496    0.00021155    0.05421854    0.00125295
    0.11250000    0.02500000   -0.00142378    0.00020921    0.07767395    0.00143907
    0.12500000    0.02500000   -0.00161031    0.00020647    0.10518375    0.00162350
    0.13750000    0.02500000   -0.00179421    0.00020341    0.13670320    0.00180571
    0.15000000    0.02500000   -0.00197519    0.00020002    0.17218499    0.00198529
    0.16250000    0.02500000   -0.00215294    0.00019633    0.21157633    0.00216188
    0.17500000    0.02500000   -0.00232720    0.00019233    0.25481813    0.00233514
    0.18750000    0.02500000   -0.00249768    0.00018802    0.30184646    0.00250475
    0.20000000    0.02500000   -0.00266411    0.00018342    0.35259127    0.00267042
    0.21250000    0.02500000   -0.00282624    0.00017852    0.40697575    0.00283187
    0.22500000    0.02500000   -0.00298379    0.00017334    0.46491868    0.00298882
    0.23750000    0.02500000   -0.00313651    0.00016788    0.52633452    0.00314100
    0.25000000    0.02500000   -0.00328418    0.00016215    0.59113192    0.00328818
    0.26250000    0.02500000   -0.00342653    0.00015616    0.65921355    0.00343009
    0.27500000    0.02500000   -0.00356335    0.00014992    0.73047532    0.00356651
    0.28750000    0.02500000   -0.00369443    0.00014344    0.80480738    0.00369721
    0.30000000    0.02500000   -0.00381954    0.00013672    0.88209858    0.00382198
    0.31250000    0.02500000   -0.00393848    0.00012978    0.96223432    0.00394061
    0.32500000    0.02500000   -0.00405105    0.00012263    1.04508768    0.00405291
    0.33750000    0.02500000   -0.00415709    0.00011528    1.13052261    0.00415869
    0.35000000    0.02500000   -0.00425641    0.00010773    1.21840700    0.00425777
    0.36250000    0.02500000   -0.00434885    0.00010000    1.30860832    0.00435000
    0.37500000    0.02500000   -0.00443425    0.00009210    1.40097976    0.00443521
    0.38750000    0.02500000   -0.00451248    0.00008403    1.49536902    0.00451326
    0.40000000    0.02500000   -0.00458339    0.00007582    1.59162870    0.00458402
    0.41250000    0.02500000   -0.00464687    0.00006747    1.68960303    0.00464736
    0.42500000    0.02500000   -0.00470279    0.00005899    1.78912749    0.00470316
    0.43750000    0.02500000   -0.00475106    0.00005040    1.89004079    0.00475132
    0.45000000    0.02500000   -0.00479158    0.00004171    1.99217575    0.00479176
    0.46250000    0.02500000   -0.00482427    0.00003293    2.09535838    0.00482438
    0.47500000    0.02500000   -0.00484906    0.00002407    2.19941637    0.00484912
    0.48750000    0.02500000   -0.00486589    0.00001514    2.30417194    0.00486591
    0.50000000    0.02500000   -0.00487471    0.00000616    2.40944418    0.00487471
    0.51250000    0.02500000   -0.00487549   -0.00000287    2.51505134    0.00487549
    0.52500000    0.02500000   -0.00486819   -0.00001192    2.62080744    0.00486821
    0.53750000    0.02500000   -0.00485282   -0.00002098    2.72652649    0.00485286
    0.55000000    0.02500000   -0.00482936   -0.00003003    2.83201987    0.00482945
    0.56250000    0.02500000   -0.00479782   -0.00003908    2.93709757    0.00479798
    0.57500000    0.02500000   -0.00475824   -0.00004809    3.04156971    0.00475848
    0.58750000    0.02500000   -0.00471064   -0.00005706    3.14524446    0.00471099
    0.60000000    0.02500000   -0.00465508   -0.00006598    3.24793028    0.00465555
    0.61250000    0.02500000   -0.00459161   -0.00007482    3.34943550    0.00459222
    0.62500000    0.02500000   -0.00452032   -0.00008357    3.44956922    0.00452109
    0.63750000    0.02500000   -0.00444128   -0.00009222    3.54814132    0.00444224
    0.65000000    0.02500000   -0.00435461   -0.00010075    3.64496245    0.00435578
    0.66250000    0.02500000   -0.00426042   -0.00010914    3.73984572    0.00426181
    0.67500000    0.02500000   -0.00415883   -0.00011739    3.83260552    0.00416049
    0.68750000    0.02500000   -0.00404999   -0.00012546    3.92305901    0.00405194
    0.70000000    0.02500000   -0.00393407   -0.00013336    4.01102580    0.00393633
    0.71250000    0.02500000   -0.00381122   -0.00014105    4.09632974    0.00381383
    0.72500000    0.02500000   -0.00368163   -0.00014853    4.17879797    0.00368463
    0.73750000    0.02500000   -0.00354552   -0.00015578    4.25826227    0.00354894
    0.75000000    0.02500000   -0.00340308   -0.00016279    4.33455878    0.00340697
    0.76250000    0.02500000   -0.00325454   -0.00016952    4.40752933    0.00325895
    0.77500000    0.02500000   -0.00310015   -0.00017599    4.47702065    0.00310514
    0.78750000    0.02500000   -0.00294016   -0.00018215    4.54288583    0.00294580
    0.80000000    0.02500000   -0.00277484   -0.00018801    4.60498423    0.00278120
    0.81250000    0.02500000   -0.00260446   -0.00019355    4.66318284    0.00261164
    0.82500000    0.02500000   -0.00242932   -0.00019876    4.71735537    0.00243743
    0.83750000    0.02500000   -0.00224971   -0.00020362    4.76738372    0.00225891
    0.85000000    0.02500000   -0.00206596   -0.00020812    4.81315715    0.00207641
    0.86250000    0.02500000   -0.00187837   -0.00021226    4.85457372    0.00189033
    0.87500000    0.02500000   -0.00168729   -0.00021603    4.89153881    0.00170107
    0.88750000    0.02500000   -0.00149306   -0.00021939    4.92396671    0.00150910
    0.90000000    0.02500000   -0.00129608   -0.00022228    4.95177912    0.00131500
    0.91250000    0.02500000   -0.00109683   -0.00022448    4.97490811    0.00111957
    0.92500000    0.02500000   -0.00089616   -0.00022532    4.99329020    0.00092406
    0.93750000    0.02500000   -0.00069566   -0.00022324    5.00690098    0.00073060
    0.95000000    0.02500000   -0.00049901   -0.00021480    5.01567811    0.00054328
    0.96250000    0.02500000   -0.00031256   -0.00019403    5.01993845    0.00036788
    0.97500000    0.02500000   -0.00015202   -0.00015209    5.01917320    0.00021504
    0.98750000    0.02500000   -0.00002770   -0.00008539    5.01685864    0.00008977
    1.00000000    0.02500000    0.00000000    0.00000000    5.00390781    0.00000000
    0.00000000    0.03750000    0.00000000    0.00000000    0.01934044    0.00000000
    0.01250000    0.03750000   -0.00003480    0.00017155    0.00363130    0.00017504
    0.02500000    0.03750000   -0.00018468    0.00029579    0.00131096    0.00034871
    0.03750000    0.03750000   -0.00037327    0.00037125   -0.00008415    0.00052645
    0.05000000    0.03750000   -0.00059017    0.00040923    0.00317222    0.00071818
    0.06250000    0.03750000   -0.00081805    0.00042514    0.01021747    0.00092192
    0.07500000    0.03750000   -0.00105033    0.00042960    0.02139949    0.00113479
    0.08750000    0.03750000   -0.00128304    0.00042870    0.03666240    0.00135276
    0.10000000    0.03750000   -0.00151446    0.00042532    0.05602337    0.00157305
    0.11250000    0.03750000   -0.00174366    0.00042066    0.07945524    0.00179369
    0.12500000    0.03750000   -0.00197010    0.00041515    0.10692804    0.00201337
    0.13750000    0.03750000   -0.00219334    0.00040894    0.13840206    0.00223113
    0.15000000    0.03750000   -0.00241300    0.00040208    0.17383205    0.00244627
    0.16250000    0.03750000   -0.00262872    0.00039458    0.21316632    0.00265817
    0.17500000    0.03750000   -0.00284015    0.00038646    0.25634718    0.00286633
    0.18750000    0.03750000   -0.00304697    0.00037773    0.30331096    0.00307029
    0.20000000    0.03750000   -0.00324882    0.00036839    0.35398767    0.00326964
    0.21250000    0.03750000   -0.00344541    0.00035847    0.40830148    0.00346400
    0.22500000    0.03750000   -0.00363640    0.00034797    0.46617172    0.00365301
    0.23750000    0.03750000   -0.00382149    0.00033691    0.52751302    0.00383631
    0.25000000    0.03750000   -0.00400039    0.00032532    0.59223445    0.00401359
    0.26250000    0.03750000   -0.00417281    0.00031320    0.66023834    0.00418454
    0.27500000    0.03750000   -0.00433847    0.00030058    0.73142039    0.00434887
    0.28750000    0.03750000   -0.00449712    0.00028748    0.80567269    0.00450630
    0.30000000    0.03750000   -0.00464849    0.00027391    0.88288511    0.00465655
    0.31250000    0.03750000   -0.00479234    0.00025990    0.96294031    0.00479938
    0.32500000    0.03750000   -0.00492844    0.00024547    1.04570979    0.00493454
    0.33750000    0.03750000   -0.00505657    0.00023063    1.13106133    0.00506182
    0.35000000    0.03750000   -0.00517653    0.00021540    1.21886534    0.00518101
    0.36250000    0.03750000   -0.00528811    0.00019982    1.30898582    0.00529188
    0.37500000    0.03750000   -0.00539113    0.00018390    1.40127536    0.00539427
    0.38750000    0.03750000   -0.00548543    0.00016767    1.49558583    0.00548799
    0.40000000    0.03750000   -0.00557083    0.00015114    1.59176859    0.00557288
    0.41250000    0.03750000   -0.00564721    0.00013434    1.68966552    0.00564880
    0.42500000    0.03750000   -0.00571441    0.00011730    1.78911530    0.00571561
    0.43750000    0.03750000   -0.00577232    0.00010004    1.88995602    0.00577319
    0.45000000    0.03750000   -0.00582084    0.00008257    1.99201864    0.00582142
    0.46250000    0.03750000   -0.00585986    0.00006494    2.09513172    0.00586022
    0.47500000    0.03750000   -0.00588930    0.00004715    2.19912197    0.00588949
    0.48750000    0.03750000   -0.00590910    0.00002924    2.30381117    0.00590918
    0.50000000    0.03750000   -0.00591921    0.00001123    2.40902015    0.00591922
    0.51250000    0.03750000   -0.00591958   -0.00000685    2.51456629    0.00591958
    0.52500000    0.03750000   -0.00591018   -0.00002498    2.62026414    0.00591023
    0.53750000    0.03750000   -0.00589101   -0.00004313    2.72592741    0.00589117
    0.55000000    0.03750000   -0.00586206   -0.00006127    2.83136731    0.00586238
    0.56250000    0.03750000   -0.00582335   -0.00007937    2.93639417    0.00582389
    0.57500000    0.03750000   -0.00577491   -0.00009741    3.04081717    0.00577573
    0.58750000    0.03750000   -0.00571679   -0.00011535    3.14444505    0.00571796
    0.60000000    0.03750000   -0.00564906   -0.00013318    3.24708640    0.00565063
    0.61250000    0.03750000   -0.00557178   -0.00015085    3.34854980    0.00557382
    0.62500000    0.03750000   -0.00548505   -0.00016834    3.44864452    0.00548763
    0.63750000    0.03750000   -0.00538898   -0.00018562    3.54718027    0.00539217
    0.65000000    0.03750000   -0.00528370   -0.00020266    3.64396779    0.00528758
    0.66250000    0.03750000   -0.00516934   -0.00021942    3.73881934    0.00517399
    0.67500000    0.03750000   -0.00504607   -0.00023588    3.83154921    0.00505158
    0.68750000    0.03750000   -0.00491406   -0.00025200    3.92197436    0.00492052
    0.70000000    0.03750000   -0.00477350   -0.00026775    4.00991472    0.00478100
    0.71250000    0.03750000   -0.00462460   -0.00028310    4.09519398    0.00463326
    0.72500000    0.03750000   -0.00446759   -0.00029803    4.17763951    0.00447752
    0.73750000    0.03750000   -0.00430270   -0.00031248    4.25708294    0.00431403
    0.75000000    0.03750000   -0.00413020   -0.00032645    4.33336018    0.00414308
    0.76250000    0.03750000   -0.00395035   -0.00033988    4.40631246    0.00396495
    0.77500000    0.03750000   -0.00376346   -0.00035277    4.47578642    0.00377995
    0.78750000    0.03750000   -0.00356981   -0.00036507    4.54163507    0.00358843
    0.80000000    0.03750000   -0.00336975   -0.00037675    4.60371792    0.00339074
    0.81250000    0.03750000   -0.00316359   -0.00038779    4.66190180    0.00318727
    0.82500000    0.03750000   -0.00295170   -0.00039817    4.71606069    0.00297844
    0.83750000    0.03750000   -0.00273444   -0.00040786    4.76607633    0.00276469
    0.85000000    0.03750000   -0.00251218   -0.00041683    4.81183826    0.00254652
    0.86250000    0.03750000   -0.00228531   -0.00042507    4.85324458    0.00232451
    0.87500000    0.03750000   -0.00205425   -0.00043255    4.89020217    0.00209929
    0.88750000    0.03750000   -0.00181942   -0.00043921    4.92262743    0.00187168
    0.90000000    0.03750000   -0.00158131   -0.00044489    4.95044660    0.00164270
    0.91250000    0.03750000   -0.00134054   -0.00044911    4.97359966    0.00141377
    0.92500000    0.03750000   -0.00109814   -0.00045061    4.99203496    0.00118700
    0.93750000    0.03750000   -0.00085594   -0.00044641    5.00575024    0.00096536
    0.95000000    0.03750000   -0.00061813   -0.00043020    5.01468127    0.00075310
    0.96250000    0.03750000   -0.00039157   -0.00039096    5.01918605    0.00055333
    0.97500000    0.03750000   -0.00019425   -0.00031264    5.01839759    0.00036808
    0.98750000    0.03750000   -0.00003696   -0.00018270    5.01626068    0.00018640
    1.00000000    0.03750000    0.00000000    0.00000000    4.99971652    0.00000000
    0.00000000    0.05000000    0.00000000    0.00000000    0.01857083    0.00000000
    0.01250000    0.05000000   -0.00003887    0.00028162    0.00066804    0.00028429
    0.02500000    0.05000000   -0.00020638    0.00047481   -0.00182009    0.00051772
    0.03750000    0.05000000   -0.00041446    0.00058876   -0.00349248    0.00072001
    0.05000000    0.05000000   -0.00065234    0.00064603   -0.00024783    0.00091810
    0.06250000    0.05000000   -0.00090134    0.00067009    0.00680302    0.00112314
    0.07500000    0.05000000   -0.00115480    0.00067693    0.01801320    0.00133858
    0.08750000    0.05000000   -0.00140858    0.00067557    0.03330052    0.00156221
    0.10000000    0.05000000   -0.00166093    0.00067033    0.05268150    0.00179109
    0.11250000    0.05000000   -0.00191085    0.00066301    0.07613006    0.00202261
    0.12500000    0.05000000   -0.00215776    0.00065433    0.10361866    0.00225479
    0.13750000    0.05000000   -0.00240117    0.00064451    0.13510852    0.00248616
    0.15000000    0.05000000   -0.00264066    0.00063364    0.17055636    0.00271562
    0.16250000    0.05000000   -0.00287583    0.00062176    0.20991185    0.00294228
    0.17500000    0.05000000   -0.00310632    0.00060889    0.25311693    0.00316543
    0.18750000    0.05000000   -0.00333173    0.00059504    0.30010829    0.00338445
    0.20000000    0.05000000   -0.00355172    0.00058025    0.35081676    0.00359881
    0.21250000    0.05000000   -0.00376593    0.00056453    0.40516651    0.00380800
    0.22500000    0.05000000   -0.00397401    0.00054790    0.46307762    0.00401160
    0.23750000    0.05000000   -0.00417564    0.00053040    0.52446566    0.00420919
    0.25000000    0.05000000   -0.00437048    0.00051205    0.58923883    0.00440038
    0.26250000    0.05000000   -0.00455824    0.00049288    0.65729862    0.00458481
    0.27500000    0.05000000   -0.00473860    0.00047291    0.72854204    0.00476214
    0.28750000    0.05000000   -0.00491129    0.00045219    0.80286243    0.00493207
    0.30000000    0.05000000   -0.00507603    0.00043075    0.88014845    0.00509427
    0.31250000    0.05000000   -0.00523254    0.00040860    0.96028071    0.00524847
    0.32500000    0.05000000   -0.00538059    0.00038579    1.04313184    0.00539440