 TITLE = "NAVIER STOKES 2D - FD"
 VARIABLES = "X" "Y" "U" "V" "P" "U_MAG"
  ZONE F=POINT, I=          81 , J=           81
    0.00000000    0.00000000    0.00000000    0.00000000    0.00000000    0.00000000
    0.01250000    0.00000000    0.00000000    0.00000000   -0.00232064    0.00000000
    0.02500000    0.00000000    0.00000000    0.00000000   -0.01055794    0.00000000
    0.03750000    0.00000000    0.00000000    0.00000000   -0.02143295    0.00000000
    0.05000000    0.00000000    0.00000000    0.00000000   -0.03148860    0.00000000
    0.06250000    0.00000000    0.00000000    0.00000000   -0.03926826    0.00000000
    0.07500000    0.00000000    0.00000000    0.00000000   -0.04400023    0.00000000
    0.08750000    0.00000000    0.00000000    0.00000000   -0.04539213    0.00000000
    0.10000000    0.00000000    0.00000000    0.00000000   -0.04336078    0.00000000
    0.11250000    0.00000000    0.00000000    0.00000000   -0.03794498    0.00000000
    0.12500000    0.00000000    0.00000000    0.00000000   -0.02923995    0.00000000
    0.13750000    0.00000000    0.00000000    0.00000000   -0.01736486    0.00000000
    0.15000000    0.00000000    0.00000000    0.00000000   -0.00244224    0.00000000
    0.16250000    0.00000000    0.00000000    0.00000000    0.01541312    0.00000000
    0.17500000    0.00000000    0.00000000    0.00000000    0.03609973    0.00000000
    0.18750000    0.00000000    0.00000000    0.00000000    0.05953140    0.00000000
    0.20000000    0.00000000    0.00000000    0.00000000    0.08563718    0.00000000
    0.21250000    0.00000000    0.00000000    0.00000000    0.11435992    0.00000000
    0.22500000    0.00000000    0.00000000    0.00000000    0.14565411    0.00000000
    0.23750000    0.00000000    0.00000000    0.00000000    0.17948342    0.00000000
    0.25000000    0.00000000    0.00000000    0.00000000    0.21581819    0.00000000
    0.26250000    0.00000000    0.00000000    0.00000000    0.25463288    0.00000000
    0.27500000    0.00000000    0.00000000    0.00000000    0.29590378    0.00000000
    0.28750000    0.00000000    0.00000000    0.00000000    0.33960687    0.00000000
    0.30000000    0.00000000    0.00000000    0.00000000    0.38571582    0.00000000
    0.31250000    0.00000000    0.00000000    0.00000000    0.43420023    0.00000000
    0.32500000    0.00000000    0.00000000    0.00000000    0.48502405    0.00000000
    0.33750000    0.00000000    0.00000000    0.00000000    0.53814398    0.00000000
    0.35000000    0.00000000    0.00000000    0.00000000    0.59350814    0.00000000
    0.36250000    0.00000000    0.00000000    0.00000000    0.65105459    0.00000000
    0.37500000    0.00000000    0.00000000    0.00000000    0.71071009    0.00000000
    0.38750000    0.00000000    0.00000000    0.00000000    0.77238885    0.00000000
    0.40000000    0.00000000    0.00000000    0.00000000    0.83599155    0.00000000
    0.41250000    0.00000000    0.00000000    0.00000000    0.90140436    0.00000000
    0.42500000    0.00000000    0.00000000    0.00000000    0.96849790    0.00000000
    0.43750000    0.00000000    0.00000000    0.00000000    1.03712628    0.00000000
    0.45000000    0.00000000    0.00000000    0.00000000    1.10712639    0.00000000
    0.46250000    0.00000000    0.00000000    0.00000000    1.17831763    0.00000000
    0.47500000    0.00000000    0.00000000    0.00000000    1.25050178    0.00000000
    0.48750000    0.00000000    0.00000000    0.00000000    1.32346289    0.00000000
    0.50000000    0.00000000    0.00000000    0.00000000    1.39696757    0.00000000
    0.51250000    0.00000000    0.00000000    0.00000000    1.47076572    0.00000000
    0.52500000    0.00000000    0.00000000    0.00000000    1.54459177    0.00000000
    0.53750000    0.00000000    0.00000000    0.00000000    1.61816630    0.00000000
    0.55000000    0.00000000    0.00000000    0.00000000    1.69119760    0.00000000
    0.56250000    0.00000000    0.00000000    0.00000000    1.76338405    0.00000000
    0.57500000    0.00000000    0.00000000    0.00000000    1.83441667    0.00000000
    0.58750000    0.00000000    0.00000000    0.00000000    1.90398233    0.00000000
    0.60000000    0.00000000    0.00000000    0.00000000    1.97176777    0.00000000
    0.61250000    0.00000000    0.00000000    0.00000000    2.03746291    0.00000000
    0.62500000    0.00000000    0.00000000    0.00000000    2.10076324    0.00000000
    0.63750000    0.00000000    0.00000000    0.00000000    2.16137500    0.00000000
    0.65000000    0.00000000    0.00000000    0.00000000    2.21902052    0.00000000
    0.66250000    0.00000000    0.00000000    0.00000000    2.27343981    0.00000000
    0.67500000    0.00000000    0.00000000    0.00000000    2.32439474    0.00000000
    0.68750000    0.00000000    0.00000000    0.00000000    2.37167412    0.00000000
    0.70000000    0.00000000    0.00000000    0.00000000    2.41509473    0.00000000
    0.71250000    0.00000000    0.00000000    0.00000000    2.45450534    0.00000000
    0.72500000    0.00000000    0.00000000    0.00000000    2.48978863    0.00000000
    0.73750000    0.00000000    0.00000000    0.00000000    2.52086206    0.00000000
    0.75000000    0.00000000    0.00000000    0.00000000    2.54768052    0.00000000
    0.76250000    0.00000000    0.00000000    0.00000000    2.57023532    0.00000000
    0.77500000    0.00000000    0.00000000    0.00000000    2.58855564    0.00000000
    0.78750000    0.00000000    0.00000000    0.00000000    2.60270768    0.00000000
    0.80000000    0.00000000    0.00000000    0.00000000    2.61279437    0.00000000
    0.81250000    0.00000000    0.00000000    0.00000000    2.61895514    0.00000000
    0.82500000    0.00000000    0.00000000    0.00000000    2.62136501    0.00000000
    0.83750000    0.00000000    0.00000000    0.00000000    2.62023509    0.00000000
    0.85000000    0.00000000    0.00000000    0.00000000    2.61581263    0.00000000
    0.86250000    0.00000000    0.00000000    0.00000000    2.60838316    0.00000000
    0.87500000    0.00000000    0.00000000    0.00000000    2.59827328    0.00000000
    0.88750000    0.00000000    0.00000000    0.00000000    2.58585679    0.00000000
    0.90000000    0.00000000    0.00000000    0.00000000    2.57156363    0.00000000
    0.91250000    0.00000000    0.00000000    0.00000000    2.55589517    0.00000000
    0.92500000    0.00000000    0.00000000    0.00000000    2.53944723    0.00000000
    0.93750000    0.00000000    0.00000000    0.00000000    2.52294851    0.00000000
    0.95000000    0.00000000    0.00000000    0.00000000    2.50731874    0.00000000
    0.96250000    0.00000000    0.00000000    0.00000000    2.49377159    0.00000000
    0.97500000    0.00000000    0.00000000    0.00000000    2.48393239    0.00000000
    0.98750000    0.00000000    0.00000000    0.00000000    2.47964366    0.00000000
    1.00000000    0.00000000    0.00000000    0.00000000    2.48186770    0.00000000
    0.00000000    0.01250000    0.00000000    0.00000000    0.00230451    0.00000000
    0.01250000    0.01250000    0.00000134   -0.00000127   -0.00003209    0.00000185
    0.02500000    0.01250000   -0.00002647    0.00000934   -0.00433047    0.00002807
    0.03750000    0.01250000   -0.00008754    0.00002209   -0.01022728    0.00009029
    0.05000000    0.01250000   -0.00018254    0.00003263   -0.01547276    0.00018543
    0.06250000    0.01250000   -0.00030566    0.00004092   -0.01928305    0.00030838
    0.07500000    0.01250000   -0.00045142    0.00004711   -0.02091158    0.00045387
    0.08750000    0.01250000   -0.00061440    0.00005159   -0.01999094    0.00061656
    0.10000000    0.01250000   -0.00079006    0.00005471   -0.01629898    0.00079195
    0.11250000    0.01250000   -0.00097469    0.00005679   -0.00974205    0.00097634
    0.12500000    0.01250000   -0.00116536    0.00005809   -0.00029723    0.00116681
    0.13750000    0.01250000   -0.00135984    0.00005880    0.01201371    0.00136111
    0.15000000    0.01250000   -0.00155640    0.00005909    0.02714592    0.00155753
    0.16250000    0.01250000   -0.00175380    0.00005908    0.04504427    0.00175479
    0.17500000    0.01250000   -0.00195108    0.00005885    0.06565181    0.00195196
    0.18750000    0.01250000   -0.00214754    0.00005846    0.08891434    0.00214834
    0.20000000    0.01250000   -0.00234266    0.00005795    0.11478283    0.00234338
    0.21250000    0.01250000   -0.00253604    0.00005735    0.14321420    0.00253668
    0.22500000    0.01250000   -0.00272732    0.00005668    0.17417092    0.00272791
    0.23750000    0.01250000   -0.00291620    0.00005592    0.20762011    0.00291674
    0.25000000    0.01250000   -0.00310240    0.00005510    0.24353224    0.00310289
    0.26250000    0.01250000   -0.00328562    0.00005418    0.28187953    0.00328607
    0.27500000    0.01250000   -0.00346554    0.00005318    0.32263441    0.00346595
    0.28750000    0.01250000   -0.00364181    0.00005207    0.36576795    0.00364219
    0.30000000    0.01250000   -0.00381406    0.00005084    0.41124827    0.00381440
    0.31250000    0.01250000   -0.00398187    0.00004949    0.45903910    0.00398218
    0.32500000    0.01250000   -0.00414479    0.00004799    0.50909837    0.00414507
    0.33750000    0.01250000   -0.00430232    0.00004634    0.56137688    0.00430257
    0.35000000    0.01250000   -0.00445393    0.00004452    0.61581696    0.00445415
    0.36250000    0.01250000   -0.00459906    0.00004252    0.67235130    0.00459925
    0.37500000    0.01250000   -0.00473710    0.00004034    0.73090172    0.00473728
    0.38750000    0.01250000   -0.00486744    0.00003795    0.79137816    0.00486759
    0.40000000    0.01250000   -0.00498941    0.00003536    0.85367766    0.00498953
    0.41250000    0.01250000   -0.00510233    0.00003256    0.91768348    0.00510244
    0.42500000    0.01250000   -0.00520552    0.00002954    0.98326414    0.00520560
    0.43750000    0.01250000   -0.00529827    0.00002630    1.05027275    0.00529834
    0.45000000    0.01250000   -0.00537988    0.00002283    1.11854649    0.00537993
    0.46250000    0.01250000   -0.00544965    0.00001916    1.18790640    0.00544968
    0.47500000    0.01250000   -0.00550690    0.00001527    1.25815725    0.00550692
    0.48750000    0.01250000   -0.00555098    0.00001117    1.32908755    0.00555099
    0.50000000    0.01250000   -0.00558126    0.00000689    1.40047009    0.00558126
    0.51250000    0.01250000   -0.00559717    0.00000244    1.47206255    0.00559717
    0.52500000    0.01250000   -0.00559819   -0.00000217    1.54360901    0.00559819
    0.53750000    0.01250000   -0.00558388   -0.00000691    1.61484183    0.00558388
    0.55000000    0.01250000   -0.00555387   -0.00001175    1.68548253    0.00555388
    0.56250000    0.01250000   -0.00550789   -0.00001667    1.75524384    0.00550792
    0.57500000    0.01250000   -0.00544578   -0.00002162    1.82383286    0.00544582
    0.58750000    0.01250000   -0.00536746   -0.00002657    1.89095397    0.00536752
    0.60000000    0.01250000   -0.00527299   -0.00003149    1.95631223    0.00527309
    0.61250000    0.01250000   -0.00516256   -0.00003633    2.01961616    0.00516268
    0.62500000    0.01250000   -0.00503645   -0.00004105    2.08058095    0.00503662
    0.63750000    0.01250000   -0.00489512   -0.00004561    2.13893335    0.00489533
    0.65000000    0.01250000   -0.00473912   -0.00004997    2.19441512    0.00473938
    0.66250000    0.01250000   -0.00456914   -0.00005409    2.24678527    0.00456946
    0.67500000    0.01250000   -0.00438600   -0.00005793    2.29582513    0.00438638
    0.68750000    0.01250000   -0.00419064   -0.00006145    2.34134120    0.00419109
    0.70000000    0.01250000   -0.00398411   -0.00006461    2.38316733    0.00398463
    0.71250000    0.01250000   -0.00376757   -0.00006739    2.42116865    0.00376818
    0.72500000    0.01250000   -0.00354229   -0.00006976    2.45524253    0.00354298
    0.73750000    0.01250000   -0.00330962   -0.00007168    2.48532113    0.00331040
    0.75000000    0.01250000   -0.00307102   -0.00007312    2.51137267    0.00307189
    0.76250000    0.01250000   -0.00282802   -0.00007408    2.53340177    0.00282899
    0.77500000    0.01250000   -0.00258225   -0.00007451    2.55145099    0.00258332
    0.78750000    0.01250000   -0.00233542   -0.00007439    2.56559998    0.00233661
    0.80000000    0.01250000   -0.00208935   -0.00007370    2.57596647    0.00209065
    0.81250000    0.01250000   -0.00184595   -0.00007241    2.58270543    0.00184737
    0.82500000    0.01250000   -0.00160722   -0.00007049    2.58600946    0.00160877
    0.83750000    0.01250000   -0.00137532   -0.00006789    2.58610867    0.00137699
    0.85000000    0.01250000   -0.00115250   -0.00006458    2.58327120    0.00115431
    0.86250000    0.01250000   -0.00094119   -0.00006052    2.57780433    0.00094313
    0.87500000    0.01250000   -0.00074391   -0.00005565    2.57005633    0.00074599
    0.88750000    0.01250000   -0.00056336   -0.00004994    2.56041970    0.00056557
    0.90000000    0.01250000   -0.00040232   -0.00004335    2.54933565    0.00040465
    0.91250000    0.01250000   -0.00026357   -0.00003587    2.53730113    0.00026600
    0.92500000    0.01250000   -0.00014982   -0.00002753    2.52487663    0.00015233
    0.93750000    0.01250000   -0.00006341   -0.00001845    2.51269889    0.00006604
    0.95000000    0.01250000   -0.00000585   -0.00000892    2.50148826    0.00001067
    0.96250000    0.01250000    0.00002286    0.00000040    2.49205139    0.00002286
    0.97500000    0.01250000    0.00002594    0.00000803    2.48533638    0.00002716
    0.98750000    0.01250000    0.00001035    0.00001041    2.48185093    0.00001468
    1.00000000    0.01250000    0.00000000    0.00000000    2.48409169    0.00000000
    0.00000000    0.02500000    0.00000000    0.00000000    0.01066145    0.00000000
    0.01250000    0.02500000   -0.00000944    0.00002657    0.00426944    0.00002820
    0.02500000    0.02500000   -0.00008316    0.00008217   -0.00004349    0.00011690
    0.03750000    0.02500000   -0.00021106    0.00014452   -0.00576091    0.00025579
    0.05000000    0.02500000   -0.00039489    0.00020025   -0.01031141    0.00044276
    0.06250000    0.02500000   -0.00062563    0.00024633   -0.01337652    0.00067238
    0.07500000    0.02500000   -0.00089509    0.00028240   -0.01427615    0.00093858
    0.08750000    0.02500000   -0.00119475    0.00030955   -0.01271856    0.00123420
    0.10000000    0.02500000   -0.00151724    0.00032925   -0.00849829    0.00155255
    0.11250000    0.02500000   -0.00185633    0.00034294   -0.00152462    0.00188774
    0.12500000    0.02500000   -0.00220697    0.00035195    0.00823411    0.00223486
    0.13750000    0.02500000   -0.00256516    0.00035736    0.02076876    0.00258994
    0.15000000    0.02500000   -0.00292780    0.00036007    0.03604823    0.00294986
    0.16250000    0.02500000   -0.00329249    0.00036075    0.05403047    0.00331219
    0.17500000    0.02500000   -0.00365741    0.00035993    0.07466997    0.00367508
    0.18750000    0.02500000   -0.00402117    0.00035798    0.09792208    0.00403708
    0.20000000    0.02500000   -0.00438271    0.00035517    0.12374542    0.00439708
    0.21250000    0.02500000   -0.00474115    0.00035167    0.15210266    0.00475418
    0.22500000    0.02500000   -0.00509579    0.00034758    0.18296052    0.00510763
    0.23750000    0.02500000   -0.00544598    0.00034293    0.21628898    0.00545676
    0.25000000    0.02500000   -0.00579112    0.00033774    0.25206031    0.00580096
    0.26250000    0.02500000   -0.00613061    0.00033199    0.29024767    0.00613959
    0.27500000    0.02500000   -0.00646382    0.00032563    0.33082380    0.00647201
    0.28750000    0.02500000   -0.00679008    0.00031860    0.37375958    0.00679755
    0.30000000    0.02500000   -0.00710867    0.00031085    0.41902262    0.00711546
    0.31250000    0.02500000   -0.00741880    0.00030230    0.46657595    0.00742496
    0.32500000    0.02500000   -0.00771964    0.00029289    0.51637663    0.00772519
    0.33750000    0.02500000   -0.00801027    0.00028254    0.56837456    0.00801525
    0.35000000    0.02500000   -0.00828972    0.00027119    0.62251118    0.00829415
    0.36250000    0.02500000   -0.00855696    0.00025878    0.67871832    0.00856087
    0.37500000    0.02500000   -0.00881090    0.00024525    0.73691709    0.00881432
    0.38750000    0.02500000   -0.00905041    0.00023054    0.79701683    0.00905335
    0.40000000    0.02500000   -0.00927431    0.00021463    0.85891416    0.00927679
    0.41250000    0.02500000   -0.00948138    0.00019746    0.92249206    0.00948344
    0.42500000    0.02500000   -0.00967039    0.00017902    0.98761901    0.00967205
    0.43750000    0.02500000   -0.00984009    0.00015930    1.05414831    0.00984138
    0.45000000    0.02500000   -0.00998923    0.00013831    1.12191765    0.00999018
    0.46250000    0.02500000   -0.01011657    0.00011606    1.19074884    0.01011724
    0.47500000    0.02500000   -0.01022093    0.00009260    1.26044768    0.01022135
    0.48750000    0.02500000   -0.01030114    0.00006797    1.33080404    0.01030137
    0.50000000    0.02500000   -0.01035613    0.00004226    1.40159242    0.01035622
    0.51250000    0.02500000   -0.01038489    0.00001555    1.47257269    0.01038491
    0.52500000    0.02500000   -0.01038654   -0.00001203    1.54349118    0.01038655
    0.53750000    0.02500000   -0.01036030   -0.00004034    1.61408236    0.01036038
    0.55000000    0.02500000   -0.01030555   -0.00006924    1.68407043    0.01030578
    0.56250000    0.02500000   -0.01022183   -0.00009854    1.75317140    0.01022230
    0.57500000    0.02500000   -0.01010885   -0.00012805    1.82109579    0.01010966
    0.58750000    0.02500000   -0.00996653   -0.00015756    1.88755162    0.00996777
    0.60000000    0.02500000   -0.00979498   -0.00018687    1.95224747    0.00979676
    0.61250000    0.02500000   -0.00959452   -0.00021573    2.01489545    0.00959694
    0.62500000    0.02500000   -0.00936570   -0.00024392    2.07521496    0.00936888
    0.63750000    0.02500000   -0.00910931   -0.00027121    2.13293677    0.00911335
    0.65000000    0.02500000   -0.00882634   -0.00029735    2.18780620    0.00883134
    0.66250000    0.02500000   -0.00851800   -0.00032212    2.23958655    0.00852409
    0.67500000    0.02500000   -0.00818575   -0.00034529    2.28806321    0.00819303
    0.68750000    0.02500000   -0.00783122   -0.00036665    2.33304644    0.00783980
    0.70000000    0.02500000   -0.00745628   -0.00038600    2.37437442    0.00746626
    0.71250000    0.02500000   -0.00706296   -0.00040315    2.41191618    0.00707446
    0.72500000    0.02500000   -0.00665349   -0.00041790    2.44557334    0.00666660
    0.73750000    0.02500000   -0.00623027   -0.00043010    2.47528246    0.00624510
    0.75000000    0.02500000   -0.00579585   -0.00043958    2.50101611    0.00581250
    0.76250000    0.02500000   -0.00535298   -0.00044618    2.52278392    0.00537154
    0.77500000    0.02500000   -0.00490452   -0.00044973    2.54063337    0.00492510
    0.78750000    0.02500000   -0.00445355   -0.00045008    2.55464978    0.00447623
    0.80000000    0.02500000   -0.00400328   -0.00044703    2.56495672    0.00402816
    0.81250000    0.02500000   -0.00355714   -0.00044041    2.57171558    0.00358430
    0.82500000    0.02500000   -0.00311874   -0.00043000    2.57512563    0.00314824
    0.83750000    0.02500000   -0.00269191   -0.00041558    2.57542382    0.00272380
    0.85000000    0.02500000   -0.00228074   -0.00039689    2.57288496    0.00231501
    0.86250000    0.02500000   -0.00188951   -0.00037369    2.56782213    0.00192611
    0.87500000    0.02500000   -0.00152278   -0.00034573    2.56058770    0.00156153
    0.88750000    0.02500000   -0.00118525   -0.00031280    2.55157497    0.00122583
    0.90000000    0.02500000   -0.00088178   -0.00027480    2.54122064    0.00092361
    0.91250000    0.02500000   -0.00061716   -0.00023181    2.53000854    0.00065926
    0.92500000    0.02500000   -0.00039588   -0.00018426    2.51847303    0.00043666
    0.93750000    0.02500000   -0.00022169   -0.00013319    2.50720715    0.00025862
    0.95000000    0.02500000   -0.00009690   -0.00008071    2.49685637    0.00012611
    0.96250000    0.02500000   -0.00002116   -0.00003086    2.48813550    0.00003742
    0.97500000    0.02500000    0.00001029    0.00000922    2.48180960    0.00001381
    0.98750000    0.02500000    0.00000807    0.00002600    2.47836142    0.00002722
    1.00000000    0.02500000    0.00000000    0.00000000    2.47993611    0.00000000
    0.00000000    0.03750000    0.00000000    0.00000000    0.02184566    0.00000000
    0.01250000    0.03750000   -0.00002279    0.00008886    0.01015927    0.00009173
    0.02500000    0.03750000   -0.00014888    0.00021089    0.00560407    0.00025815
    0.03750000    0.03750000   -0.00034485    0.00033827   -0.00016336    0.00048306
    0.05000000    0.03750000   -0.00061244    0.00045234   -0.00400403    0.00076137
    0.06250000    0.03750000   -0.00093946    0.00054782   -0.00621458    0.00108752
    0.07500000    0.03750000   -0.00131626    0.00062386   -0.00622371    0.00145662
    0.08750000    0.03750000   -0.00173252    0.00068215   -0.00385704    0.00186198
    0.10000000    0.03750000   -0.00217923    0.00072525    0.00105384    0.00229674
    0.11250000    0.03750000   -0.00264856    0.00075586    0.00858566    0.00275430
    0.12500000    0.03750000   -0.00313401    0.00077650    0.01877478    0.00322877
    0.13750000    0.03750000   -0.00363031    0.00078935    0.03162410    0.00371513
    0.15000000    0.03750000   -0.00413326    0.00079620    0.04711779    0.00420925
    0.16250000    0.03750000   -0.00463957    0.00079848    0.06522921    0.00470778
    0.17500000    0.03750000   -0.00514664    0.00079730    0.08592700    0.00520803
    0.18750000    0.03750000   -0.00565247    0.00079346    0.10917873    0.00570789
    0.20000000    0.03750000   -0.00615546    0.00078756    0.13495298    0.00620564
    0.21250000    0.03750000   -0.00665431    0.00077997    0.16322029    0.00669986
    0.22500000    0.03750000   -0.00714791    0.00077093    0.19395332    0.00718936
    0.23750000    0.03750000   -0.00763529    0.00076055    0.22712630    0.00767308
    0.25000000    0.03750000   -0.00811554    0.00074889    0.26271434    0.00815002
    0.26250000    0.03750000   -0.00858775    0.00073589    0.30069240    0.00861922
    0.27500000    0.03750000   -0.00905099    0.00072149    0.34103408    0.00907970
    0.28750000    0.03750000   -0.00950429    0.00070557    0.38371052    0.00953044
    0.30000000    0.03750000   -0.00994662    0.00068802    0.42868914    0.00997038
    0.31250000    0.03750000   -0.01037687    0.00066868    0.47593245    0.01039839
    0.32500000    0.03750000   -0.01079385    0.00064743    0.52539682    0.01081325
    0.33750000    0.03750000   -0.01119631    0.00062412    0.57703138    0.01121369
    0.35000000    0.03750000   -0.01158289    0.00059861    0.63077678    0.01159835
    0.36250000    0.03750000   -0.01195219    0.00057077    0.68656413    0.01196581
    0.37500000    0.03750000   -0.01230271    0.00054049    0.74431392    0.01231458
    0.38750000    0.03750000   -0.01263291    0.00050766    0.80393505    0.01264311
    0.40000000    0.03750000   -0.01294118    0.00047220    0.86532386    0.01294979
    0.41250000    0.03750000   -0.01322589    0.00043405    0.92836326    0.01323301
    0.42500000    0.03750000   -0.01348536    0.00039315    0.99292185    0.01349109
    0.43750000    0.03750000   -0.01371792    0.00034951    1.05885337    0.01372238
    0.45000000    0.03750000   -0.01392191    0.00030313    1.12599625    0.01392521
    0.46250000    0.03750000   -0.01409567    0.00025406    1.19417331    0.01409796
    0.47500000    0.03750000   -0.01423762    0.00020240    1.26319158    0.01423906
    0.48750000    0.03750000   -0.01434623    0.00014826    1.33284255    0.01434699
    0.50000000    0.03750000   -0.01442007    0.00009182    1.40290261    0.01442036
    0.51250000    0.03750000   -0.01445784    0.00003329    1.47313384    0.01445788
    0.52500000    0.03750000   -0.01445837   -0.00002708    1.54328505    0.01445840
    0.53750000    0.03750000   -0.01442068   -0.00008899    1.61309329    0.01442096
    0.55000000    0.03750000   -0.01434397   -0.00015211    1.68228566    0.01434478
    0.56250000    0.03750000   -0.01422766   -0.00021605    1.75058140    0.01422930
    0.57500000    0.03750000   -0.01407141   -0.00028042    1.81769456    0.01407420
    0.58750000    0.03750000   -0.01387513   -0.00034476    1.88333668    0.01387941
    0.60000000    0.03750000   -0.01363903   -0.00040862    1.94721983    0.01364515
    0.61250000    0.03750000   -0.01336356   -0.00047152    2.00906006    0.01337188
    0.62500000    0.03750000   -0.01304950   -0.00053295    2.06858091    0.01306038
    0.63750000    0.03750000   -0.01269792   -0.00059243    2.12551700    0.01271173
    0.65000000    0.03750000   -0.01231016   -0.00064945    2.17961783    0.01232728
    0.66250000    0.03750000   -0.01188789   -0.00070353    2.23065114    0.01190869
    0.67500000    0.03750000   -0.01143303   -0.00075419    2.27840657    0.01145788
    0.68750000    0.03750000   -0.01094781   -0.00080099    2.32269913    0.01097707
    0.70000000    0.03750000   -0.01043471   -0.00084347    2.36337177    0.01046874
    0.71250000    0.03750000   -0.00989645   -0.00088125    2.40029851    0.00993561
    0.72500000    0.03750000   -0.00933602   -0.00091392    2.43338655    0.00938065
    0.73750000    0.03750000   -0.00875662   -0.00094111    2.46257807    0.00880705
    0.75000000    0.03750000   -0.00816169   -0.00096246    2.48785206    0.00821824
    0.76250000    0.03750000   -0.00755486   -0.00097762    2.50922489    0.00761785
    0.77500000    0.03750000   -0.00694002   -0.00098623    2.52675154    0.00700974
    0.78750000    0.03750000   -0.00632125   -0.00098793    2.54052547    0.00639798
    0.80000000    0.03750000   -0.00570290   -0.00098231    2.55067900    0.00578688
    0.81250000    0.03750000   -0.00508955   -0.00096895    2.55738295    0.00518096
    0.82500000    0.03750000   -0.00448606   -0.00094740    2.56084645    0.00458500
    0.83750000    0.03750000   -0.00389756   -0.00091716    2.56131643    0.00400402
    0.85000000    0.03750000   -0.00332951   -0.00087772    2.55907721    0.00344326
    0.86250000    0.03750000   -0.00278762   -0.00082855    2.55445007    0.00290815
    0.87500000    0.03750000   -0.00227791   -0.00076919    2.54779273    0.00240427
    0.88750000    0.03750000   -0.00180656   -0.00069928    2.53949893    0.00193718
    0.90000000    0.03750000   -0.00137985   -0.00061872    2.52999742    0.00151221
    0.91250000    0.03750000   -0.00100389   -0.00052782    2.51975153    0.00113419
    0.92500000    0.03750000   -0.00068431   -0.00042770    2.50925441    0.00080697
    0.93750000    0.03750000   -0.00042563   -0.00032071    2.49903255    0.00053293
    0.95000000    0.03750000   -0.00023060   -0.00021128    2.48961354    0.00031275
    0.96250000    0.03750000   -0.00009875   -0.00010722    2.48158361    0.00014577
    0.97500000    0.03750000   -0.00002555   -0.00002127    2.47536757    0.00003324
    0.98750000    0.03750000    0.00000106    0.00002422    2.47167243    0.00002424
    1.00000000    0.03750000    0.00000000    0.00000000    2.47053223    0.00000000
    0.00000000    0.05000000    0.00000000    0.00000000    0.03241225    0.00000000
    0.01250000    0.05000000   -0.00003454    0.00018773    0.01536245    0.00019088
    0.02500000    0.05000000   -0.00021102    0.00039969    0.01004405    0.00045197
    0.03750000    0.05000000   -0.00047157    0.00060819    0.00348908    0.00076959
    0.05000000    0.05000000   -0.00081685    0.00079318   -0.00034552    0.00113859
    0.06250000    0.05000000   -0.00123083    0.00094853   -0.00230266    0.00155392
    0.07500000    0.05000000   -0.00170244    0.00107341   -0.00188693    0.00201258
    0.08750000    0.05000000   -0.00222002    0.00117026    0.00094938    0.00250959
    0.10000000    0.05000000   -0.00277349    0.00124283    0.00631800    0.00303922
    0.11250000    0.05000000   -0.00335397    0.00129514    0.01425930    0.00359534
    0.12500000    0.05000000   -0.00395402    0.00133103    0.02479319    0.00417204
    0.13750000    0.05000000   -0.00456750    0.00135389    0.03791693    0.00476393
    0.15000000    0.05000000   -0.00518942    0.00136656    0.05361612    0.00536634
    0.16250000    0.05000000   -0.00581579    0.00137136    0.07186913    0.00597528
    0.17500000    0.05000000   -0.00644342    0.00137006    0.09265127    0.00658747
    0.18750000    0.05000000   -0.00706977    0.00136404    0.11593722    0.00720016
    0.20000000    0.05000000   -0.00769280    0.00135427    0.14170234    0.00781110
    0.21250000    0.05000000   -0.00831080    0.00134141    0.16992321    0.00841836
    0.22500000    0.05000000   -0.00892234    0.00132589    0.20057764    0.00902031
    0.23750000    0.05000000   -0.00952610    0.00130792    0.23364413    0.00961547
    0.25000000    0.05000000   -0.01012087    0.00128760    0.26910117    0.01020245
    0.26250000    0.05000000   -0.01070548    0.00126488    0.30692635    0.01077994
    0.27500000    0.05000000   -0.01127870    0.00123966    0.34709532    0.01134663
    0.28750000    0.05000000   -0.01183931    0.00121178    0.38958073    0.01190116
    0.30000000    0.05000000   -0.01238597    0.00118103    0.43435114    0.01244215
    0.31250000    0.05000000   -0.01291730    0.00114720    0.48136992    0.01296815
    0.32500000    0.05000000   -0.01343182    0.00111007    0.53059415    0.01347762