 TITLE = "NAVIER STOKES 2D - FD"
 VARIABLES = "X" "Y" "U" "V" "P" "U_MAG"
  ZONE F=POINT, I=          81 , J=           81
    0.00000000    0.00000000    0.00000000    0.00000000    0.00000000    0.00000000
    0.01250000    0.00000000    0.00000000    0.00000000   -0.00231333    0.00000000
    0.02500000    0.00000000    0.00000000    0.00000000   -0.00953157    0.00000000
    0.03750000    0.00000000    0.00000000    0.00000000   -0.01874060    0.00000000
    0.05000000    0.00000000    0.00000000    0.00000000   -0.02692745    0.00000000
    0.06250000    0.00000000    0.00000000    0.00000000   -0.03286470    0.00000000
    0.07500000    0.00000000    0.00000000    0.00000000   -0.03590062    0.00000000
    0.08750000    0.00000000    0.00000000    0.00000000   -0.03578668    0.00000000
    0.10000000    0.00000000    0.00000000    0.00000000   -0.03244654    0.00000000
    0.11250000    0.00000000    0.00000000    0.00000000   -0.02590508    0.00000000
    0.12500000    0.00000000    0.00000000    0.00000000   -0.01623476    0.00000000
    0.13750000    0.00000000    0.00000000    0.00000000   -0.00352925    0.00000000
    0.15000000    0.00000000    0.00000000    0.00000000    0.01211405    0.00000000
    0.16250000    0.00000000    0.00000000    0.00000000    0.03060346    0.00000000
    0.17500000    0.00000000    0.00000000    0.00000000    0.05185764    0.00000000
    0.18750000    0.00000000    0.00000000    0.00000000    0.07580762    0.00000000
    0.20000000    0.00000000    0.00000000    0.00000000    0.10239682    0.00000000
    0.21250000    0.00000000    0.00000000    0.00000000    0.13157946    0.00000000
    0.22500000    0.00000000    0.00000000    0.00000000    0.16331883    0.00000000
    0.23750000    0.00000000    0.00000000    0.00000000    0.19758515    0.00000000
    0.25000000    0.00000000    0.00000000    0.00000000    0.23435316    0.00000000
    0.26250000    0.00000000    0.00000000    0.00000000    0.27360006    0.00000000
    0.27500000    0.00000000    0.00000000    0.00000000    0.31530372    0.00000000
    0.28750000    0.00000000    0.00000000    0.00000000    0.35944085    0.00000000
    0.30000000    0.00000000    0.00000000    0.00000000    0.40598548    0.00000000
    0.31250000    0.00000000    0.00000000    0.00000000    0.45490783    0.00000000
    0.32500000    0.00000000    0.00000000    0.00000000    0.50617309    0.00000000
    0.33750000    0.00000000    0.00000000    0.00000000    0.55974043    0.00000000
    0.35000000    0.00000000    0.00000000    0.00000000    0.61556217    0.00000000
    0.36250000    0.00000000    0.00000000    0.00000000    0.67358283    0.00000000
    0.37500000    0.00000000    0.00000000    0.00000000    0.73373806    0.00000000
    0.38750000    0.00000000    0.00000000    0.00000000    0.79595377    0.00000000
    0.40000000    0.00000000    0.00000000    0.00000000    0.86014560    0.00000000
    0.41250000    0.00000000    0.00000000    0.00000000    0.92621855    0.00000000
    0.42500000    0.00000000    0.00000000    0.00000000    0.99406647    0.00000000
    0.43750000    0.00000000    0.00000000    0.00000000    1.06357120    0.00000000
    0.45000000    0.00000000    0.00000000    0.00000000    1.13460163    0.00000000
    0.46250000    0.00000000    0.00000000    0.00000000    1.20701357    0.00000000
    0.47500000    0.00000000    0.00000000    0.00000000    1.28065004    0.00000000
    0.48750000    0.00000000    0.00000000    0.00000000    1.35534099    0.00000000
    0.50000000    0.00000000    0.00000000    0.00000000    1.43090294    0.00000000
    0.51250000    0.00000000    0.00000000    0.00000000    1.50713936    0.00000000
    0.52500000    0.00000000    0.00000000    0.00000000    1.58384136    0.00000000
    0.53750000    0.00000000    0.00000000    0.00000000    1.66078818    0.00000000
    0.55000000    0.00000000    0.00000000    0.00000000    1.73774799    0.00000000
    0.56250000    0.00000000    0.00000000    0.00000000    1.81447871    0.00000000
    0.57500000    0.00000000    0.00000000    0.00000000    1.89072967    0.00000000
    0.58750000    0.00000000    0.00000000    0.00000000    1.96624472    0.00000000
    0.60000000    0.00000000    0.00000000    0.00000000    2.04076242    0.00000000
    0.61250000    0.00000000    0.00000000    0.00000000    2.11401576    0.00000000
    0.62500000    0.00000000    0.00000000    0.00000000    2.18573788    0.00000000
    0.63750000    0.00000000    0.00000000    0.00000000    2.25566561    0.00000000
    0.65000000    0.00000000    0.00000000    0.00000000    2.32353685    0.00000000
    0.66250000    0.00000000    0.00000000    0.00000000    2.38909569    0.00000000
    0.67500000    0.00000000    0.00000000    0.00000000    2.45209718    0.00000000
    0.68750000    0.00000000    0.00000000    0.00000000    2.51230536    0.00000000
    0.70000000    0.00000000    0.00000000    0.00000000    2.56949859    0.00000000
    0.71250000    0.00000000    0.00000000    0.00000000    2.62347111    0.00000000
    0.72500000    0.00000000    0.00000000    0.00000000    2.67403374    0.00000000
    0.73750000    0.00000000    0.00000000    0.00000000    2.72101779    0.00000000
    0.75000000    0.00000000    0.00000000    0.00000000    2.76427382    0.00000000
    0.76250000    0.00000000    0.00000000    0.00000000    2.80367523    0.00000000
    0.77500000    0.00000000    0.00000000    0.00000000    2.83911745    0.00000000
    0.78750000    0.00000000    0.00000000    0.00000000    2.87051948    0.00000000
    0.80000000    0.00000000    0.00000000    0.00000000    2.89782467    0.00000000
    0.81250000    0.00000000    0.00000000    0.00000000    2.92100075    0.00000000
    0.82500000    0.00000000    0.00000000    0.00000000    2.94004207    0.00000000
    0.83750000    0.00000000    0.00000000    0.00000000    2.95496981    0.00000000
    0.85000000    0.00000000    0.00000000    0.00000000    2.96583580    0.00000000
    0.86250000    0.00000000    0.00000000    0.00000000    2.97272483    0.00000000
    0.87500000    0.00000000    0.00000000    0.00000000    2.97576137    0.00000000
    0.88750000    0.00000000    0.00000000    0.00000000    2.97511665    0.00000000
    0.90000000    0.00000000    0.00000000    0.00000000    2.97102179    0.00000000
    0.91250000    0.00000000    0.00000000    0.00000000    2.96378589    0.00000000
    0.92500000    0.00000000    0.00000000    0.00000000    2.95382512    0.00000000
    0.93750000    0.00000000    0.00000000    0.00000000    2.94171305    0.00000000
    0.95000000    0.00000000    0.00000000    0.00000000    2.92825403    0.00000000
    0.96250000    0.00000000    0.00000000    0.00000000    2.91467523    0.00000000
    0.97500000    0.00000000    0.00000000    0.00000000    2.90280016    0.00000000
    0.98750000    0.00000000    0.00000000    0.00000000    2.89564073    0.00000000
    1.00000000    0.00000000    0.00000000    0.00000000    2.89561150    0.00000000
    0.00000000    0.01250000    0.00000000    0.00000000    0.00229996    0.00000000
    0.01250000    0.01250000    0.00000036   -0.00000031   -0.00002485    0.00000047
    0.02500000    0.01250000   -0.00002647    0.00000926   -0.00367401    0.00002805
    0.03750000    0.01250000   -0.00008249    0.00002044   -0.00851659    0.00008498
    0.05000000    0.01250000   -0.00016799    0.00002955   -0.01253089    0.00017057
    0.06250000    0.01250000   -0.00027769    0.00003667   -0.01505242    0.00028010
    0.07500000    0.01250000   -0.00040678    0.00004197   -0.01543000    0.00040894
    0.08750000    0.01250000   -0.00055056    0.00004579   -0.01334242    0.00055246
    0.10000000    0.01250000   -0.00070512    0.00004846   -0.00859027    0.00070678
    0.11250000    0.01250000   -0.00086727    0.00005023   -0.00108387    0.00086872
    0.12500000    0.01250000   -0.00103449    0.00005132    0.00920619    0.00103576
    0.13750000    0.01250000   -0.00120484    0.00005191    0.02227049    0.00120596
    0.15000000    0.01250000   -0.00137688    0.00005214    0.03807891    0.00137787
    0.16250000    0.01250000   -0.00154951    0.00005211    0.05659173    0.00155038
    0.17500000    0.01250000   -0.00172194    0.00005189    0.07776660    0.00172272
    0.18750000    0.01250000   -0.00189359    0.00005154    0.10156251    0.00189429
    0.20000000    0.01250000   -0.00206403    0.00005110    0.12794197    0.00206466
    0.21250000    0.01250000   -0.00223292    0.00005059    0.15687154    0.00223350
    0.22500000    0.01250000   -0.00240001    0.00005001    0.18832152    0.00240053
    0.23750000    0.01250000   -0.00256505    0.00004937    0.22226520    0.00256552
    0.25000000    0.01250000   -0.00272781    0.00004867    0.25867777    0.00272825
    0.26250000    0.01250000   -0.00288808    0.00004791    0.29753500    0.00288848
    0.27500000    0.01250000   -0.00304561    0.00004707    0.33881203    0.00304597
    0.28750000    0.01250000   -0.00320014    0.00004616    0.38248222    0.00320047
    0.30000000    0.01250000   -0.00335139    0.00004516    0.42851591    0.00335169
    0.31250000    0.01250000   -0.00349905    0.00004406    0.47687936    0.00349933
    0.32500000    0.01250000   -0.00364279    0.00004286    0.52753383    0.00364304
    0.33750000    0.01250000   -0.00378225    0.00004154    0.58043466    0.00378248
    0.35000000    0.01250000   -0.00391705    0.00004010    0.63553032    0.00391726
    0.36250000    0.01250000   -0.00404679    0.00003854    0.69276164    0.00404697
    0.37500000    0.01250000   -0.00417103    0.00003684    0.75206093    0.00417120
    0.38750000    0.01250000   -0.00428934    0.00003500    0.81335113    0.00428948
    0.40000000    0.01250000   -0.00440123    0.00003300    0.87654531    0.00440136
    0.41250000    0.01250000   -0.00450624    0.00003086    0.94154632    0.00450635
    0.42500000    0.01250000   -0.00460386    0.00002856    1.00824618    0.00460395
    0.43750000    0.01250000   -0.00469360    0.00002610    1.07652519    0.00469367
    0.45000000    0.01250000   -0.00477492    0.00002347    1.14625148    0.00477498
    0.46250000    0.01250000   -0.00484733    0.00002069    1.21728096    0.00484738
    0.47500000    0.01250000   -0.00491031    0.00001774    1.28945741    0.00491034
    0.48750000    0.01250000   -0.00496336    0.00001464    1.36261216    0.00496338
    0.50000000    0.01250000   -0.00500597    0.00001138    1.43656402    0.00500599
    0.51250000    0.01250000   -0.00503769    0.00000798    1.51111979    0.00503770
    0.52500000    0.01250000   -0.00505806    0.00000444    1.58607483    0.00505806
    0.53750000    0.01250000   -0.00506667    0.00000077    1.66121339    0.00506667
    0.55000000    0.01250000   -0.00506312   -0.00000301    1.73631014    0.00506313
    0.56250000    0.01250000   -0.00504711   -0.00000689    1.81113076    0.00504711
    0.57500000    0.01250000   -0.00501833   -0.00001084    1.88543311    0.00501834
    0.58750000    0.01250000   -0.00497657   -0.00001486    1.95897008    0.00497659
    0.60000000    0.01250000   -0.00492166   -0.00001892    2.03148938    0.00492170
    0.61250000    0.01250000   -0.00485352   -0.00002300    2.10273500    0.00485357
    0.62500000    0.01250000   -0.00477211   -0.00002707    2.17245265    0.00477219
    0.63750000    0.01250000   -0.00467751   -0.00003111    2.24039019    0.00467761
    0.65000000    0.01250000   -0.00456984   -0.00003509    2.30629744    0.00456997
    0.66250000    0.01250000   -0.00444931   -0.00003898    2.36993233    0.00444949
    0.67500000    0.01250000   -0.00431624   -0.00004277    2.43106183    0.00431646
    0.68750000    0.01250000   -0.00417101   -0.00004641    2.48946279    0.00417127
    0.70000000    0.01250000   -0.00401407   -0.00004989    2.54492684    0.00401438
    0.71250000    0.01250000   -0.00384599   -0.00005319    2.59726027    0.00384636
    0.72500000    0.01250000   -0.00366740   -0.00005626    2.64628736    0.00366783
    0.73750000    0.01250000   -0.00347901   -0.00005909    2.69185188    0.00347951
    0.75000000    0.01250000   -0.00328163   -0.00006166    2.73381815    0.00328221
    0.76250000    0.01250000   -0.00307616   -0.00006392    2.77207395    0.00307682
    0.77500000    0.01250000   -0.00286358   -0.00006586    2.80653015    0.00286434
    0.78750000    0.01250000   -0.00264502   -0.00006744    2.83712390    0.00264588
    0.80000000    0.01250000   -0.00242168   -0.00006861    2.86381851    0.00242265
    0.81250000    0.01250000   -0.00219495   -0.00006934    2.88660618    0.00219604
    0.82500000    0.01250000   -0.00196636   -0.00006956    2.90550916    0.00196759
    0.83750000    0.01250000   -0.00173767   -0.00006921    2.92058256    0.00173905
    0.85000000    0.01250000   -0.00151085   -0.00006822    2.93191731    0.00151239
    0.86250000    0.01250000   -0.00128817   -0.00006648    2.93964429    0.00128988
    0.87500000    0.01250000   -0.00107218   -0.00006390    2.94394001    0.00107409
    0.88750000    0.01250000   -0.00086583   -0.00006035    2.94503387    0.00086793
    0.90000000    0.01250000   -0.00067241   -0.00005570    2.94321818    0.00067471
    0.91250000    0.01250000   -0.00049560   -0.00004981    2.93886226    0.00049810
    0.92500000    0.01250000   -0.00033946   -0.00004255    2.93242817    0.00034212
    0.93750000    0.01250000   -0.00020820   -0.00003382    2.92450321    0.00021093
    0.95000000    0.01250000   -0.00010601   -0.00002360    2.91580607    0.00010861
    0.96250000    0.01250000   -0.00003613   -0.00001224    2.90730209    0.00003815
    0.97500000    0.01250000   -0.00000001   -0.00000065    2.90004287    0.00000065
    0.98750000    0.01250000    0.00000667    0.00000672    2.89558434    0.00000947
    1.00000000    0.01250000    0.00000000    0.00000000    2.89558226    0.00000000
    0.00000000    0.02500000    0.00000000    0.00000000    0.00960228    0.00000000
    0.01250000    0.02500000   -0.00000934    0.00002655    0.00362694    0.00002814
    0.02500000    0.02500000   -0.00007707    0.00007637   -0.00003077    0.00010850
    0.03750000    0.02500000   -0.00019205    0.00013087   -0.00472568    0.00023240
    0.05000000    0.02500000   -0.00035543    0.00017903   -0.00814523    0.00039797
    0.06250000    0.02500000   -0.00055903    0.00021858   -0.01003472    0.00060025
    0.07500000    0.02500000   -0.00079569    0.00024941   -0.00979785    0.00083387
    0.08750000    0.02500000   -0.00105802    0.00027253   -0.00717773    0.00109255
    0.10000000    0.02500000   -0.00133965    0.00028923   -0.00198806    0.00137052
    0.11250000    0.02500000   -0.00163524    0.00030077    0.00585932    0.00166267
    0.12500000    0.02500000   -0.00194043    0.00030827    0.01640201    0.00196476
    0.13750000    0.02500000   -0.00225178    0.00031268    0.02964203    0.00227339
    0.15000000    0.02500000   -0.00256664    0.00031478    0.04556173    0.00258588
    0.16250000    0.02500000   -0.00288299    0.00031517    0.06413303    0.00290016
    0.17500000    0.02500000   -0.00319928    0.00031429    0.08532377    0.00321468
    0.18750000    0.02500000   -0.00351437    0.00031249    0.10910144    0.00352823
    0.20000000    0.02500000   -0.00382738    0.00030998    0.13543520    0.00383992
    0.21250000    0.02500000   -0.00413764    0.00030692    0.16429666    0.00414900
    0.22500000    0.02500000   -0.00444456    0.00030340    0.19565979    0.00445491
    0.23750000    0.02500000   -0.00474768    0.00029945    0.22950040    0.00475711
    0.25000000    0.02500000   -0.00504651    0.00029508    0.26579525    0.00505513
    0.26250000    0.02500000   -0.00534062    0.00029029    0.30452103    0.00534850
    0.27500000    0.02500000   -0.00562953    0.00028503    0.34565327    0.00563674
    0.28750000    0.02500000   -0.00591274    0.00027928    0.38916531    0.00591933
    0.30000000    0.02500000   -0.00618973    0.00027299    0.43502725    0.00619574
    0.31250000    0.02500000   -0.00645992    0.00026611    0.48320497    0.00646540
    0.32500000    0.02500000   -0.00672271    0.00025861    0.53365921    0.00672768
    0.33750000    0.02500000   -0.00697744    0.00025043    0.58634474    0.00698193
    0.35000000    0.02500000   -0.00722342    0.00024154    0.64120950    0.00722746
    0.36250000    0.02500000   -0.00745993    0.00023188    0.69819377    0.00746353
    0.37500000    0.02500000   -0.00768618    0.00022143    0.75722927    0.00768937
    0.38750000    0.02500000   -0.00790138    0.00021014    0.81823853    0.00790418
    0.40000000    0.02500000   -0.00810471    0.00019799    0.88113433    0.00810712
    0.41250000    0.02500000   -0.00829529    0.00018495    0.94581929    0.00829735
    0.42500000    0.02500000   -0.00847224    0.00017099    1.01218516    0.00847397
    0.43750000    0.02500000   -0.00863468    0.00015611    1.08011208    0.00863609
    0.45000000    0.02500000   -0.00878170    0.00014029    1.14946820    0.00878282
    0.46250000    0.02500000   -0.00891239    0.00012354    1.22010972    0.00891325
    0.47500000    0.02500000   -0.00902585    0.00010587    1.29188077    0.00902647
    0.48750000    0.02500000   -0.00912119    0.00008728    1.36461308    0.00912161
    0.50000000    0.02500000   -0.00919756    0.00006782    1.43812609    0.00919781
    0.51250000    0.02500000   -0.00925413    0.00004752    1.51222749    0.00925425
    0.52500000    0.02500000   -0.00929012    0.00002644    1.58671367    0.00929016
    0.53750000    0.02500000   -0.00930480    0.00000463    1.66137019    0.00930480
    0.55000000    0.02500000   -0.00929752   -0.00001783    1.73597268    0.00929754
    0.56250000    0.02500000   -0.00926771   -0.00004085    1.81028804    0.00926780
    0.57500000    0.02500000   -0.00921487   -0.00006433    1.88407627    0.00921510
    0.58750000    0.02500000   -0.00913863   -0.00008815    1.95709175    0.00913905
    0.60000000    0.02500000   -0.00903870   -0.00011221    2.02908364    0.00903939
    0.61250000    0.02500000   -0.00891493   -0.00013638    2.09979888    0.00891597
    0.62500000    0.02500000   -0.00876729   -0.00016051    2.16898546    0.00876876
    0.63750000    0.02500000   -0.00859588   -0.00018446    2.23639260    0.00859786
    0.65000000    0.02500000   -0.00840095   -0.00020810    2.30177318    0.00840353
    0.66250000    0.02500000   -0.00818288   -0.00023126    2.36488774    0.00818615
    0.67500000    0.02500000   -0.00794220   -0.00025380    2.42550525    0.00794626
    0.68750000    0.02500000   -0.00767959   -0.00027557    2.48340582    0.00768453
    0.70000000    0.02500000   -0.00739586   -0.00029641    2.53838353    0.00740180
    0.71250000    0.02500000   -0.00709198   -0.00031617    2.59024776    0.00709902
    0.72500000    0.02500000   -0.00676907   -0.00033471    2.63882607    0.00677734
    0.73750000    0.02500000   -0.00642839   -0.00035185    2.68396537    0.00643801
    0.75000000    0.02500000   -0.00607136   -0.00036745    2.72553420    0.00608247
    0.76250000    0.02500000   -0.00569958   -0.00038133    2.76342421    0.00571232
    0.77500000    0.02500000   -0.00531480   -0.00039330    2.79755152    0.00532934
    0.78750000    0.02500000   -0.00491900   -0.00040315    2.82785867    0.00493549
    0.80000000    0.02500000   -0.00451436   -0.00041063    2.85431566    0.00453300
    0.81250000    0.02500000   -0.00410335   -0.00041546    2.87692221    0.00412433
    0.82500000    0.02500000   -0.00368873   -0.00041728    2.89570922    0.00371226
    0.83750000    0.02500000   -0.00327362   -0.00041572    2.91074168    0.00329991
    0.85000000    0.02500000   -0.00286157   -0.00041030    2.92212127    0.00289084
    0.86250000    0.02500000   -0.00245660   -0.00040048    2.92999049    0.00248903
    0.87500000    0.02500000   -0.00206326   -0.00038566    2.93453727    0.00209900
    0.88750000    0.02500000   -0.00168669   -0.00036519    2.93600140    0.00172577
    0.90000000    0.02500000   -0.00133263   -0.00033836    2.93468208    0.00137491
    0.91250000    0.02500000   -0.00100737   -0.00030454    2.93094904    0.00105239
    0.92500000    0.02500000   -0.00071767   -0.00026322    2.92525170    0.00076442
    0.93750000    0.02500000   -0.00047041   -0.00021432    2.91814725    0.00051694
    0.95000000    0.02500000   -0.00027217   -0.00015861    2.91027612    0.00031502
    0.96250000    0.02500000   -0.00012770   -0.00009878    2.90251676    0.00016145
    0.97500000    0.02500000   -0.00003944   -0.00004080    2.89557107    0.00005675
    0.98750000    0.02500000   -0.00000047    0.00000010    2.89113145    0.00000048
    1.00000000    0.02500000    0.00000000    0.00000000    2.88859255    0.00000000
    0.00000000    0.03750000    0.00000000    0.00000000    0.01902123    0.00000000
    0.01250000    0.03750000   -0.00002093    0.00008343    0.00846086    0.00008602
    0.02500000    0.03750000   -0.00013392    0.00019193    0.00461673    0.00023403
    0.03750000    0.03750000   -0.00030740    0.00030285   -0.00010938    0.00043152
    0.05000000    0.03750000   -0.00054255    0.00040115   -0.00291540    0.00067475
    0.06250000    0.03750000   -0.00082845    0.00048292   -0.00407802    0.00095892
    0.07500000    0.03750000   -0.00115667    0.00054773   -0.00309185    0.00127980
    0.08750000    0.03750000   -0.00151828    0.00059721    0.00020186    0.00163151
    0.10000000    0.03750000   -0.00190550    0.00063360    0.00595992    0.00200808
    0.11250000    0.03750000   -0.00231161    0.00065923    0.01426021    0.00240377
    0.12500000    0.03750000   -0.00273100    0.00067630    0.02514588    0.00281349
    0.13750000    0.03750000   -0.00315916    0.00068668    0.03863045    0.00323293
    0.15000000    0.03750000   -0.00359251    0.00069195    0.05471022    0.00365854
    0.16250000    0.03750000   -0.00402825    0.00069335    0.07337109    0.00408749
    0.17500000    0.03750000   -0.00446422    0.00069186    0.09459364    0.00451751
    0.18750000    0.03750000   -0.00489876    0.00068819    0.11835618    0.00494686
    0.20000000    0.03750000   -0.00533058    0.00068284    0.14463671    0.00537413
    0.21250000    0.03750000   -0.00575864    0.00067615    0.17341378    0.00579820
    0.22500000    0.03750000   -0.00618209    0.00066834    0.20466648    0.00621811
    0.23750000    0.03750000   -0.00660018    0.00065950    0.23837430    0.00663305
    0.25000000    0.03750000   -0.00701222    0.00064968    0.27451651    0.00704225
    0.26250000    0.03750000   -0.00741754    0.00063886    0.31307135    0.00744500
    0.27500000    0.03750000   -0.00781546    0.00062699    0.35401524    0.00784057
    0.28750000    0.03750000   -0.00820526    0.00061401    0.39732191    0.00822820
    0.30000000    0.03750000   -0.00858619    0.00059982    0.44296150    0.00860712
    0.31250000    0.03750000   -0.00895747    0.00058434    0.49089967    0.00897651
    0.32500000    0.03750000   -0.00931824    0.00056747    0.54109684    0.00933551
    0.33750000    0.03750000   -0.00966762    0.00054913    0.59350735    0.00968320
    0.35000000    0.03750000   -0.01000465    0.00052923    0.64807864    0.01001864
    0.36250000    0.03750000   -0.01032834    0.00050768    0.70475049    0.01034081
    0.37500000    0.03750000   -0.01063765    0.00048440    0.76345420    0.01064867
    0.38750000    0.03750000   -0.01093150    0.00045932    0.82411193    0.01094114
    0.40000000    0.03750000   -0.01120876    0.00043237    0.88663629    0.01121710
    0.41250000    0.03750000   -0.01146829    0.00040351    0.95092974    0.01147539
    0.42500000    0.03750000   -0.01170891    0.00037269    1.01688382    0.01171484
    0.43750000    0.03750000   -0.01192941    0.00033988    1.08437859    0.01193425
    0.45000000    0.03750000   -0.01212860    0.00030507    1.15328235    0.01213244
    0.46250000    0.03750000   -0.01230527    0.00026827    1.22345167    0.01230820
    0.47500000    0.03750000   -0.01245823    0.00022950    1.29473101    0.01246035
    0.48750000    0.03750000   -0.01258631    0.00018880    1.36695253    0.01258773
    0.50000000    0.03750000   -0.01268838    0.00014623    1.43993643    0.01268922
    0.51250000    0.03750000   -0.01276335    0.00010188    1.51349129    0.01276375
    0.52500000    0.03750000   -0.01281019    0.00005588    1.58741443    0.01281031
    0.53750000    0.03750000   -0.01282797    0.00000834    1.66149248    0.01282797
    0.55000000    0.03750000   -0.01281583   -0.00004056    1.73550235    0.01281590
    0.56250000    0.03750000   -0.01277303   -0.00009063    1.80921254    0.01277335
    0.57500000    0.03750000   -0.01269894   -0.00014167    1.88238458    0.01269973
    0.58750000    0.03750000   -0.01259306   -0.00019344    1.95477401    0.01259455
    0.60000000    0.03750000   -0.01245506   -0.00024569    2.02613220    0.01245748
    0.61250000    0.03750000   -0.01228475   -0.00029815    2.09620850    0.01228837
    0.62500000    0.03750000   -0.01208210   -0.00035053    2.16475239    0.01208719
    0.63750000    0.03750000   -0.01184728   -0.00040252    2.23151538    0.01185412
    0.65000000    0.03750000   -0.01158063   -0.00045381    2.29625312    0.01158952
    0.66250000    0.03750000   -0.01128267   -0.00050410    2.35872816    0.01129392
    0.67500000    0.03750000   -0.01095412   -0.00055306    2.41871243    0.01096807
    0.68750000    0.03750000   -0.01059588   -0.00060036    2.47598883    0.01061288
    0.70000000    0.03750000   -0.01020907   -0.00064568    2.53035443    0.01022947
    0.71250000    0.03750000   -0.00979499   -0.00068870    2.58162228    0.00981917
    0.72500000    0.03750000   -0.00935512   -0.00072909    2.62962341    0.00938349
    0.73750000    0.03750000   -0.00889117   -0.00076650    2.67420929    0.00892414
    0.75000000    0.03750000   -0.00840504   -0.00080060    2.71525316    0.00844308
    0.76250000    0.03750000   -0.00789887   -0.00083100    2.75265239    0.00794246
    0.77500000    0.03750000   -0.00737503   -0.00085728    2.78632965    0.00742469
    0.78750000    0.03750000   -0.00683616   -0.00087899    2.81623510    0.00689244
    0.80000000    0.03750000   -0.00628523   -0.00089557    2.84234773    0.00634872
    0.81250000    0.03750000   -0.00572554   -0.00090641    2.86467747    0.00579684
    0.82500000    0.03750000   -0.00516081   -0.00091077    2.88326718    0.00524056
    0.83750000    0.03750000   -0.00459523   -0.00090780    2.89819499    0.00468404
    0.85000000    0.03750000   -0.00403354   -0.00089651    2.90957714    0.00413197
    0.86250000    0.03750000   -0.00348108   -0.00087578    2.91757120    0.00358956
    0.87500000    0.03750000   -0.00294388   -0.00084437    2.92237987    0.00306257
    0.88750000    0.03750000   -0.00242863   -0.00080096    2.92425535    0.00255730
    0.90000000    0.03750000   -0.00194277   -0.00074424    2.92350374    0.00208045
    0.91250000    0.03750000   -0.00149432   -0.00067302    2.92049146    0.00163889
    0.92500000    0.03750000   -0.00109174   -0.00058656    2.91564433    0.00123933
    0.93750000    0.03750000   -0.00074344   -0.00048502    2.90946946    0.00088766
    0.95000000    0.03750000   -0.00045738   -0.00037029    2.90248738    0.00058848
    0.96250000    0.03750000   -0.00023916   -0.00024771    2.89544822    0.00034432
    0.97500000    0.03750000   -0.00009302   -0.00012796    2.88854944    0.00015820
    0.98750000    0.03750000   -0.00001127   -0.00003438    2.88386721    0.00003618
    1.00000000    0.03750000    0.00000000    0.00000000    2.87713173    0.00000000
    0.00000000    0.05000000    0.00000000    0.00000000    0.02754110    0.00000000
    0.01250000    0.05000000   -0.00003088    0.00017162    0.01243198    0.00017438
    0.02500000    0.05000000   -0.00018643    0.00035871    0.00795178    0.00040427
    0.03750000    0.05000000   -0.00041428    0.00053958    0.00256604    0.00068028
    0.05000000    0.05000000   -0.00071466    0.00069856   -0.00023306    0.00099936
    0.06250000    0.05000000   -0.00107343    0.00083125   -0.00118722    0.00135765
    0.07500000    0.05000000   -0.00148095    0.00093741    0.00014535    0.00175270
    0.08750000    0.05000000   -0.00192719    0.00101936    0.00381719    0.00218018
    0.10000000    0.05000000   -0.00240344    0.00108038    0.00993889    0.00263510
    0.11250000    0.05000000   -0.00290208    0.00112398    0.01855930    0.00311214
    0.12500000    0.05000000   -0.00341672    0.00115346    0.02970905    0.00360617
    0.13750000    0.05000000   -0.00394209    0.00117179    0.04339833    0.00411256
    0.15000000    0.05000000   -0.00447395    0.00118144    0.05962585    0.00462731
    0.16250000    0.05000000   -0.00500892    0.00118443    0.07838257    0.00514705
    0.17500000    0.05000000   -0.00554435    0.00118236    0.09965543    0.00566902
    0.18750000    0.05000000   -0.00607817    0.00117642    0.12342933    0.00619097
    0.20000000    0.05000000   -0.00660871    0.00116745    0.14968828    0.00671103
    0.21250000    0.05000000   -0.00713465    0.00115605    0.17841614    0.00722770
    0.22500000    0.05000000   -0.00765485    0.00114258    0.20959657    0.00773966
    0.23750000    0.05000000   -0.00816835    0.00112725    0.24321267    0.00824577
    0.25000000    0.05000000   -0.00867423    0.00111015    0.27924661    0.00874498
    0.26250000    0.05000000   -0.00917162    0.00109126    0.31767892    0.00923631
    0.27500000    0.05000000   -0.00965963    0.00107052    0.35848771    0.00971877
    0.28750000    0.05000000   -0.01013738    0.00104784    0.40164800    0.01019139
    0.30000000    0.05000000   -0.01060392    0.00102307    0.44713092    0.01065316
    0.31250000    0.05000000   -0.01105826    0.00099609    0.49490292    0.01110303
    0.32500000    0.05000000   -0.01149936    0.00096674    0.54492501    0.01153993