 TITLE = "NAVIER STOKES 2D - FD"
 VARIABLES = "X" "Y" "U" "V" "P" "U_MAG"
  ZONE F=POINT, I=          81 , J=           81
    0.00000000    0.00000000    0.00000000    0.00000000    0.00000000    0.00000000
    0.01250000    0.00000000    0.00000000    0.00000000   -0.00182390    0.00000000
    0.02500000    0.00000000    0.00000000    0.00000000   -0.00783092    0.00000000
    0.03750000    0.00000000    0.00000000    0.00000000   -0.01556454    0.00000000
    0.05000000    0.00000000    0.00000000    0.00000000   -0.02248442    0.00000000
    0.06250000    0.00000000    0.00000000    0.00000000   -0.02754813    0.00000000
    0.07500000    0.00000000    0.00000000    0.00000000   -0.03023819    0.00000000
    0.08750000    0.00000000    0.00000000    0.00000000   -0.03040283    0.00000000
    0.10000000    0.00000000    0.00000000    0.00000000   -0.02804402    0.00000000
    0.11250000    0.00000000    0.00000000    0.00000000   -0.02324229    0.00000000
    0.12500000    0.00000000    0.00000000    0.00000000   -0.01610143    0.00000000
    0.13750000    0.00000000    0.00000000    0.00000000   -0.00672122    0.00000000
    0.15000000    0.00000000    0.00000000    0.00000000    0.00481515    0.00000000
    0.16250000    0.00000000    0.00000000    0.00000000    0.01844398    0.00000000
    0.17500000    0.00000000    0.00000000    0.00000000    0.03412042    0.00000000
    0.18750000    0.00000000    0.00000000    0.00000000    0.05181450    0.00000000
    0.20000000    0.00000000    0.00000000    0.00000000    0.07150662    0.00000000
    0.21250000    0.00000000    0.00000000    0.00000000    0.09318437    0.00000000
    0.22500000    0.00000000    0.00000000    0.00000000    0.11683967    0.00000000
    0.23750000    0.00000000    0.00000000    0.00000000    0.14246610    0.00000000
    0.25000000    0.00000000    0.00000000    0.00000000    0.17005769    0.00000000
    0.26250000    0.00000000    0.00000000    0.00000000    0.19960801    0.00000000
    0.27500000    0.00000000    0.00000000    0.00000000    0.23110909    0.00000000
    0.28750000    0.00000000    0.00000000    0.00000000    0.26455089    0.00000000
    0.30000000    0.00000000    0.00000000    0.00000000    0.29992118    0.00000000
    0.31250000    0.00000000    0.00000000    0.00000000    0.33720469    0.00000000
    0.32500000    0.00000000    0.00000000    0.00000000    0.37638231    0.00000000
    0.33750000    0.00000000    0.00000000    0.00000000    0.41743101    0.00000000
    0.35000000    0.00000000    0.00000000    0.00000000    0.46032406    0.00000000
    0.36250000    0.00000000    0.00000000    0.00000000    0.50503111    0.00000000
    0.37500000    0.00000000    0.00000000    0.00000000    0.55151743    0.00000000
    0.38750000    0.00000000    0.00000000    0.00000000    0.59974238    0.00000000
    0.40000000    0.00000000    0.00000000    0.00000000    0.64965915    0.00000000
    0.41250000    0.00000000    0.00000000    0.00000000    0.70121591    0.00000000
    0.42500000    0.00000000    0.00000000    0.00000000    0.75435545    0.00000000
    0.43750000    0.00000000    0.00000000    0.00000000    0.80901314    0.00000000
    0.45000000    0.00000000    0.00000000    0.00000000    0.86511735    0.00000000
    0.46250000    0.00000000    0.00000000    0.00000000    0.92259140    0.00000000
    0.47500000    0.00000000    0.00000000    0.00000000    0.98135182    0.00000000
    0.48750000    0.00000000    0.00000000    0.00000000    1.04130516    0.00000000
    0.50000000    0.00000000    0.00000000    0.00000000    1.10235040    0.00000000
    0.51250000    0.00000000    0.00000000    0.00000000    1.16438244    0.00000000
    0.52500000    0.00000000    0.00000000    0.00000000    1.22728728    0.00000000
    0.53750000    0.00000000    0.00000000    0.00000000    1.29094009    0.00000000
    0.55000000    0.00000000    0.00000000    0.00000000    1.35521205    0.00000000
    0.56250000    0.00000000    0.00000000    0.00000000    1.41996673    0.00000000
    0.57500000    0.00000000    0.00000000    0.00000000    1.48505734    0.00000000
    0.58750000    0.00000000    0.00000000    0.00000000    1.55033402    0.00000000
    0.60000000    0.00000000    0.00000000    0.00000000    1.61563791    0.00000000
    0.61250000    0.00000000    0.00000000    0.00000000    1.68080335    0.00000000
    0.62500000    0.00000000    0.00000000    0.00000000    1.74566170    0.00000000
    0.63750000    0.00000000    0.00000000    0.00000000    1.81003537    0.00000000
    0.65000000    0.00000000    0.00000000    0.00000000    1.87374532    0.00000000
    0.66250000    0.00000000    0.00000000    0.00000000    1.93660689    0.00000000
    0.67500000    0.00000000    0.00000000    0.00000000    1.99843246    0.00000000
    0.68750000    0.00000000    0.00000000    0.00000000    2.05903333    0.00000000
    0.70000000    0.00000000    0.00000000    0.00000000    2.11821750    0.00000000
    0.71250000    0.00000000    0.00000000    0.00000000    2.17579492    0.00000000
    0.72500000    0.00000000    0.00000000    0.00000000    2.23157387    0.00000000
    0.73750000    0.00000000    0.00000000    0.00000000    2.28536630    0.00000000
    0.75000000    0.00000000    0.00000000    0.00000000    2.33698509    0.00000000
    0.76250000    0.00000000    0.00000000    0.00000000    2.38624803    0.00000000
    0.77500000    0.00000000    0.00000000    0.00000000    2.43297612    0.00000000
    0.78750000    0.00000000    0.00000000    0.00000000    2.47699605    0.00000000
    0.80000000    0.00000000    0.00000000    0.00000000    2.51813897    0.00000000
    0.81250000    0.00000000    0.00000000    0.00000000    2.55624132    0.00000000
    0.82500000    0.00000000    0.00000000    0.00000000    2.59114318    0.00000000
    0.83750000    0.00000000    0.00000000    0.00000000    2.62268771    0.00000000
    0.85000000    0.00000000    0.00000000    0.00000000    2.65071877    0.00000000
    0.86250000    0.00000000    0.00000000    0.00000000    2.67508011    0.00000000
    0.87500000    0.00000000    0.00000000    0.00000000    2.69561434    0.00000000
    0.88750000    0.00000000    0.00000000    0.00000000    2.71216625    0.00000000
    0.90000000    0.00000000    0.00000000    0.00000000    2.72459002    0.00000000
    0.91250000    0.00000000    0.00000000    0.00000000    2.73276752    0.00000000
    0.92500000    0.00000000    0.00000000    0.00000000    2.73663775    0.00000000
    0.93750000    0.00000000    0.00000000    0.00000000    2.73625700    0.00000000
    0.95000000    0.00000000    0.00000000    0.00000000    2.73187637    0.00000000
    0.96250000    0.00000000    0.00000000    0.00000000    2.72419543    0.00000000
    0.97500000    0.00000000    0.00000000    0.00000000    2.71454607    0.00000000
    0.98750000    0.00000000    0.00000000    0.00000000    2.70635372    0.00000000
    1.00000000    0.00000000    0.00000000    0.00000000    2.70308525    0.00000000
    0.00000000    0.01250000    0.00000000    0.00000000    0.00180340    0.00000000
    0.01250000    0.01250000    0.00000058   -0.00000053   -0.00002274    0.00000079
    0.02500000    0.01250000   -0.00002094    0.00000736   -0.00309712    0.00002220
    0.03750000    0.01250000   -0.00006663    0.00001658   -0.00724001    0.00006867
    0.05000000    0.01250000   -0.00013634    0.00002395   -0.01080365    0.00013842
    0.06250000    0.01250000   -0.00022505    0.00002944   -0.01323730    0.00022697
    0.07500000    0.01250000   -0.00032811    0.00003323   -0.01401832    0.00032979
    0.08750000    0.01250000   -0.00044107    0.00003567   -0.01290399    0.00044251
    0.10000000    0.01250000   -0.00056041    0.00003710   -0.00975646    0.00056164
    0.11250000    0.01250000   -0.00068346    0.00003783   -0.00452552    0.00068451
    0.12500000    0.01250000   -0.00080831    0.00003808    0.00279578    0.00080921
    0.13750000    0.01250000   -0.00093367    0.00003804    0.01219119    0.00093445
    0.15000000    0.01250000   -0.00105870    0.00003781    0.02363687    0.00105938
    0.16250000    0.01250000   -0.00118286    0.00003747    0.03710853    0.00118346
    0.17500000    0.01250000   -0.00130580    0.00003707    0.05258494    0.00130633
    0.18750000    0.01250000   -0.00142728    0.00003661    0.07004931    0.00142775
    0.20000000    0.01250000   -0.00154714    0.00003612    0.08948886    0.00154756
    0.21250000    0.01250000   -0.00166522    0.00003560    0.11089369    0.00166560
    0.22500000    0.01250000   -0.00178140    0.00003504    0.13425602    0.00178174
    0.23750000    0.01250000   -0.00189553    0.00003444    0.15956907    0.00189584
    0.25000000    0.01250000   -0.00200747    0.00003380    0.18682591    0.00200775
    0.26250000    0.01250000   -0.00211707    0.00003311    0.21601884    0.00211733
    0.27500000    0.01250000   -0.00222418    0.00003238    0.24713880    0.00222441
    0.28750000    0.01250000   -0.00232863    0.00003160    0.28017472    0.00232884
    0.30000000    0.01250000   -0.00243026    0.00003076    0.31511304    0.00243045
    0.31250000    0.01250000   -0.00252889    0.00002988    0.35193734    0.00252906
    0.32500000    0.01250000   -0.00262433    0.00002893    0.39062782    0.00262449
    0.33750000    0.01250000   -0.00271642    0.00002793    0.43116101    0.00271656
    0.35000000    0.01250000   -0.00280495    0.00002687    0.47350993    0.00280508
    0.36250000    0.01250000   -0.00288974    0.00002574    0.51764353    0.00288985
    0.37500000    0.01250000   -0.00297058    0.00002455    0.56352574    0.00297068
    0.38750000    0.01250000   -0.00304728    0.00002330    0.61111484    0.00304737
    0.40000000    0.01250000   -0.00311962    0.00002198    0.66036397    0.00311970
    0.41250000    0.01250000   -0.00318741    0.00002060    0.71122130    0.00318748
    0.42500000    0.01250000   -0.00325044    0.00001915    0.76362884    0.00325049
    0.43750000    0.01250000   -0.00330848    0.00001763    0.81752171    0.00330853
    0.45000000    0.01250000   -0.00336135    0.00001604    0.87282898    0.00336138
    0.46250000    0.01250000   -0.00340881    0.00001437    0.92947387    0.00340884
    0.47500000    0.01250000   -0.00345066    0.00001265    0.98737177    0.00345068
    0.48750000    0.01250000   -0.00348669    0.00001085    1.04642976    0.00348670
    0.50000000    0.01250000   -0.00351669    0.00000898    1.10654896    0.00351670
    0.51250000    0.01250000   -0.00354047    0.00000705    1.16762441    0.00354048
    0.52500000    0.01250000   -0.00355783    0.00000505    1.22954138    0.00355784
    0.53750000    0.01250000   -0.00356858    0.00000299    1.29217778    0.00356858
    0.55000000    0.01250000   -0.00357254    0.00000087    1.35540661    0.00357254
    0.56250000    0.01250000   -0.00356953   -0.00000130    1.41909124    0.00356953
    0.57500000    0.01250000   -0.00355941   -0.00000353    1.48308861    0.00355941
    0.58750000    0.01250000   -0.00354202   -0.00000581    1.54725079    0.00354203
    0.60000000    0.01250000   -0.00351724   -0.00000813    1.61142004    0.00351725
    0.61250000    0.01250000   -0.00348496   -0.00001049    1.67543536    0.00348498
    0.62500000    0.01250000   -0.00344508   -0.00001287    1.73912938    0.00344510
    0.63750000    0.01250000   -0.00339753   -0.00001528    1.80232862    0.00339756
    0.65000000    0.01250000   -0.00334225   -0.00001771    1.86485775    0.00334230
    0.66250000    0.01250000   -0.00327923   -0.00002015    1.92653484    0.00327929
    0.67500000    0.01250000   -0.00320845   -0.00002259    1.98717772    0.00320853
    0.68750000    0.01250000   -0.00312994   -0.00002502    2.04660032    0.00313004
    0.70000000    0.01250000   -0.00304375   -0.00002743    2.10461633    0.00304388
    0.71250000    0.01250000   -0.00294997   -0.00002981    2.16103914    0.00295012
    0.72500000    0.01250000   -0.00284870   -0.00003216    2.21568229    0.00284888
    0.73750000    0.01250000   -0.00274008   -0.00003446    2.26836199    0.00274030
    0.75000000    0.01250000   -0.00262428   -0.00003670    2.31889591    0.00262454
    0.76250000    0.01250000   -0.00250151   -0.00003888    2.36710657    0.00250181
    0.77500000    0.01250000   -0.00237198   -0.00004098    2.41281969    0.00237234
    0.78750000    0.01250000   -0.00223597   -0.00004300    2.45586745    0.00223639
    0.80000000    0.01250000   -0.00209378   -0.00004491    2.49608685    0.00209426
    0.81250000    0.01250000   -0.00194574   -0.00004672    2.53332255    0.00194630
    0.82500000    0.01250000   -0.00179227   -0.00004839    2.56742555    0.00179292
    0.83750000    0.01250000   -0.00163385   -0.00004990    2.59825583    0.00163461
    0.85000000    0.01250000   -0.00147110   -0.00005119    2.62568219    0.00147199
    0.86250000    0.01250000   -0.00130485   -0.00005221    2.64958619    0.00130589
    0.87500000    0.01250000   -0.00113618   -0.00005283    2.66986534    0.00113741
    0.88750000    0.01250000   -0.00096663   -0.00005291    2.68644186    0.00096807
    0.90000000    0.01250000   -0.00079826   -0.00005223    2.69927382    0.00079997
    0.91250000    0.01250000   -0.00063392   -0.00005051    2.70837605    0.00063593
    0.92500000    0.01250000   -0.00047734   -0.00004740    2.71384393    0.00047969
    0.93750000    0.01250000   -0.00033328   -0.00004249    2.71590788    0.00033598
    0.95000000    0.01250000   -0.00020765   -0.00003531    2.71494386    0.00021063
    0.96250000    0.01250000   -0.00010670   -0.00002558    2.71170869    0.00010972
    0.97500000    0.01250000   -0.00003769   -0.00001304    2.70694571    0.00003988
    0.98750000    0.01250000   -0.00000156   -0.00000155    2.70306740    0.00000220
    1.00000000    0.01250000    0.00000000    0.00000000    2.69981696    0.00000000
    0.00000000    0.02500000    0.00000000    0.00000000    0.00785003    0.00000000
    0.01250000    0.02500000   -0.00000739    0.00002099    0.00305339    0.00002225
    0.02500000    0.02500000   -0.00006238    0.00006203   -0.00002471    0.00008797
    0.03750000    0.02500000   -0.00015620    0.00010675   -0.00405099    0.00018919
    0.05000000    0.02500000   -0.00028901    0.00014533   -0.00715893    0.00032349
    0.06250000    0.02500000   -0.00045299    0.00017555   -0.00913548    0.00048581
    0.07500000    0.02500000   -0.00064101    0.00019743   -0.00950245    0.00067072
    0.08750000    0.02500000   -0.00084606    0.00021217   -0.00806293    0.00087226
    0.10000000    0.02500000   -0.00106237    0.00022130   -0.00468042    0.00108518
    0.11250000    0.02500000   -0.00128545    0.00022630    0.00070299    0.00130522
    0.12500000    0.02500000   -0.00151198    0.00022840    0.00810871    0.00152914
    0.13750000    0.02500000   -0.00173965    0.00022856    0.01753541    0.00175460
    0.15000000    0.02500000   -0.00196688    0.00022746    0.02897206    0.00197999
    0.16250000    0.02500000   -0.00219262    0.00022555    0.04240463    0.00220419
    0.17500000    0.02500000   -0.00241617    0.00022311    0.05781971    0.00242645
    0.18750000    0.02500000   -0.00263703    0.00022029    0.07520586    0.00264621
    0.20000000    0.02500000   -0.00285483    0.00021718    0.09455385    0.00286308
    0.21250000    0.02500000   -0.00306926    0.00021380    0.11585630    0.00307669
    0.22500000    0.02500000   -0.00328003    0.00021017    0.13910685    0.00328676
    0.23750000    0.02500000   -0.00348688    0.00020629    0.16429945    0.00349298
    0.25000000    0.02500000   -0.00368953    0.00020214    0.19142775    0.00369506
    0.26250000    0.02500000   -0.00388769    0.00019771    0.22048436    0.00389272
    0.27500000    0.02500000   -0.00408108    0.00019298    0.25146036    0.00408564
    0.28750000    0.02500000   -0.00426939    0.00018796    0.28434485    0.00427353
    0.30000000    0.02500000   -0.00445232    0.00018262    0.31912446    0.00445606
    0.31250000    0.02500000   -0.00462954    0.00017696    0.35578277    0.00463292
    0.32500000    0.02500000   -0.00480074    0.00017097    0.39430008    0.00480378
    0.33750000    0.02500000   -0.00496559    0.00016463    0.43465319    0.00496831
    0.35000000    0.02500000   -0.00512375    0.00015795    0.47681521    0.00512618
    0.36250000    0.02500000   -0.00527488    0.00015091    0.52075504    0.00527704
    0.37500000    0.02500000   -0.00541864    0.00014350    0.56643657    0.00542054
    0.38750000    0.02500000   -0.00555467    0.00013573    0.61381836    0.00555633
    0.40000000    0.02500000   -0.00568261    0.00012759    0.66285401    0.00568404
    0.41250000    0.02500000   -0.00580212    0.00011907    0.71349179    0.00580334
    0.42500000    0.02500000   -0.00591282    0.00011017    0.76567364    0.00591385
    0.43750000    0.02500000   -0.00601436    0.00010088    0.81933499    0.00601521
    0.45000000    0.02500000   -0.00610639    0.00009121    0.87440550    0.00610707
    0.46250000    0.02500000   -0.00618853    0.00008115    0.93080827    0.00618907
    0.47500000    0.02500000   -0.00626044    0.00007072    0.98845855    0.00626084
    0.48750000    0.02500000   -0.00632177    0.00005991    1.04726432    0.00632205
    0.50000000    0.02500000   -0.00637216    0.00004873    1.10712752    0.00637235
    0.51250000    0.02500000   -0.00641130    0.00003720    1.16794250    0.00641140
    0.52500000    0.02500000   -0.00643884    0.00002531    1.22959495    0.00643889
    0.53750000    0.02500000   -0.00645449    0.00001309    1.29196430    0.00645450
    0.55000000    0.02500000   -0.00645795    0.00000055    1.35492301    0.00645795
    0.56250000    0.02500000   -0.00644894   -0.00001228    1.41833488    0.00644895
    0.57500000    0.02500000   -0.00642721   -0.00002538    1.48205816    0.00642726
    0.58750000    0.02500000   -0.00639253   -0.00003873    1.54594403    0.00639265
    0.60000000    0.02500000   -0.00634470   -0.00005230    1.60983634    0.00634492
    0.61250000    0.02500000   -0.00628354   -0.00006606    1.67357457    0.00628389
    0.62500000    0.02500000   -0.00620892   -0.00007996    1.73699116    0.00620943
    0.63750000    0.02500000   -0.00612071   -0.00009398    1.79991446    0.00612144
    0.65000000    0.02500000   -0.00601887   -0.00010806    1.86216854    0.00601984
    0.66250000    0.02500000   -0.00590336   -0.00012217    1.92357307    0.00590462
    0.67500000    0.02500000   -0.00577419   -0.00013626    1.98394605    0.00577580
    0.68750000    0.02500000   -0.00563143   -0.00015028    2.04310216    0.00563343
    0.70000000    0.02500000   -0.00547518   -0.00016418    2.10085612    0.00547764
    0.71250000    0.02500000   -0.00530561   -0.00017791    2.15702150    0.00530859
    0.72500000    0.02500000   -0.00512291   -0.00019140    2.21141325    0.00512648
    0.73750000    0.02500000   -0.00492735   -0.00020462    2.26384771    0.00493159
    0.75000000    0.02500000   -0.00471923   -0.00021749    2.31414404    0.00472424
    0.76250000    0.02500000   -0.00449892   -0.00022998    2.36212512    0.00450480
    0.77500000    0.02500000   -0.00426684   -0.00024201    2.40761832    0.00427370
    0.78750000    0.02500000   -0.00402345   -0.00025353    2.45045672    0.00403143
    0.80000000    0.02500000   -0.00376931   -0.00026446    2.49047958    0.00377858
    0.81250000    0.02500000   -0.00350504   -0.00027471    2.52753365    0.00351579
    0.82500000    0.02500000   -0.00323137   -0.00028415    2.56147381    0.00324384
    0.83750000    0.02500000   -0.00294921   -0.00029257    2.59216471    0.00296369
    0.85000000    0.02500000   -0.00265969   -0.00029969    2.61948249    0.00267652
    0.86250000    0.02500000   -0.00236430   -0.00030507    2.64331799    0.00238390
    0.87500000    0.02500000   -0.00206500   -0.00030806    2.66358149    0.00208786
    0.88750000    0.02500000   -0.00176450   -0.00030780    2.68021048    0.00179114
    0.90000000    0.02500000   -0.00146640   -0.00030309    2.69318065    0.00149739
    0.91250000    0.02500000   -0.00117552   -0.00029245    2.70252385    0.00121135
    0.92500000    0.02500000   -0.00089809   -0.00027412    2.70834597    0.00093900
    0.93750000    0.02500000   -0.00064184   -0.00024625    2.71087715    0.00068746
    0.95000000    0.02500000   -0.00041607   -0.00020723    2.71044016    0.00046482
    0.96250000    0.02500000   -0.00023026   -0.00015664    2.70774514    0.00027849
    0.97500000    0.02500000   -0.00009562   -0.00009635    2.70308618    0.00013575
    0.98750000    0.02500000   -0.00001284   -0.00003760    2.69919879    0.00003974
    1.00000000    0.02500000    0.00000000    0.00000000    2.69171187    0.00000000
    0.00000000    0.03750000    0.00000000    0.00000000    0.01568670    0.00000000
    0.01250000    0.03750000   -0.00001683    0.00006712    0.00719111    0.00006920
    0.02500000    0.03750000   -0.00010830    0.00015614    0.00397645    0.00019002
    0.03750000    0.03750000   -0.00024880    0.00024650   -0.00006731    0.00035023
    0.05000000    0.03750000   -0.00043821    0.00032448   -0.00270541    0.00054527
    0.06250000    0.03750000   -0.00066620    0.00038625   -0.00416081    0.00077007
    0.07500000    0.03750000   -0.00092434    0.00043168   -0.00402882    0.00102017
    0.08750000    0.03750000   -0.00120413    0.00046285   -0.00218365    0.00129003
    0.10000000    0.03750000   -0.00149855    0.00048257    0.00149874    0.00157433
    0.11250000    0.03750000   -0.00180194    0.00049366    0.00708043    0.00186834
    0.12500000    0.03750000   -0.00211007    0.00049857    0.01459783    0.00216817
    0.13750000    0.03750000   -0.00241987    0.00049923    0.02406642    0.00247082
    0.15000000    0.03750000   -0.00272919    0.00049704    0.03549119    0.00277408
    0.16250000    0.03750000   -0.00303657    0.00049297    0.04887115    0.00307632
    0.17500000    0.03750000   -0.00334097    0.00048761    0.06420276    0.00337636
    0.18750000    0.03750000   -0.00364165    0.00048134    0.08148182    0.00367332
    0.20000000    0.03750000   -0.00393804    0.00047434    0.10070412    0.00396650
    0.21250000    0.03750000   -0.00422967    0.00046670    0.12186551    0.00425534
    0.22500000    0.03750000   -0.00451612    0.00045847    0.14496186    0.00453933
    0.23750000    0.03750000   -0.00479698    0.00044964    0.16998864    0.00481801
    0.25000000    0.03750000   -0.00507187    0.00044020    0.19694035    0.00509093
    0.26250000    0.03750000   -0.00534037    0.00043014    0.22581024    0.00535766
    0.27500000    0.03750000   -0.00560209    0.00041943    0.25658987    0.00561777
    0.28750000    0.03750000   -0.00585660    0.00040805    0.28926865    0.00587080
    0.30000000    0.03750000   -0.00610350    0.00039599    0.32383344    0.00611633
    0.31250000    0.03750000   -0.00634235    0.00038323    0.36026816    0.00635391
    0.32500000    0.03750000   -0.00657271    0.00036975    0.39855347    0.00658310
    0.33750000    0.03750000   -0.00679415    0.00035554    0.43866658    0.00680345
    0.35000000    0.03750000   -0.00700622    0.00034058    0.48058101    0.00701449
    0.36250000    0.03750000   -0.00720847    0.00032486    0.52426579    0.00721579
    0.37500000    0.03750000   -0.00740043    0.00030837    0.56968490    0.00740686
    0.38750000    0.03750000   -0.00758166    0.00029109    0.61679740    0.00758724
    0.40000000    0.03750000   -0.00775167    0.00027303    0.66555747    0.00775648
    0.41250000    0.03750000   -0.00791002    0.00025418    0.71591358    0.00791410
    0.42500000    0.03750000   -0.00805623    0.00023452    0.76780791    0.00805964
    0.43750000    0.03750000   -0.00818984    0.00021407    0.82117667    0.00819263
    0.45000000    0.03750000   -0.00831038    0.00019281    0.87595001    0.00831262
    0.46250000    0.03750000   -0.00841740    0.00017076    0.93205091    0.00841914
    0.47500000    0.03750000   -0.00851045    0.00014793    0.98939505    0.00851174
    0.48750000    0.03750000   -0.00858908    0.00012432    1.04789160    0.00858998
    0.50000000    0.03750000   -0.00865286    0.00009995    1.10744268    0.00865344
    0.51250000    0.03750000   -0.00870137    0.00007485    1.16794252    0.00870169
    0.52500000    0.03750000   -0.00873420    0.00004904    1.22927808    0.00873434
    0.53750000    0.03750000   -0.00875097    0.00002255    1.29132925    0.00875100
    0.55000000    0.03750000   -0.00875133   -0.00000458    1.35396837    0.00875133
    0.56250000    0.03750000   -0.00873492   -0.00003230    1.41706053    0.00873498
    0.57500000    0.03750000   -0.00870145   -0.00006056    1.48046410    0.00870166
    0.58750000    0.03750000   -0.00865063   -0.00008932    1.54403060    0.00865110
    0.60000000    0.03750000   -0.00858224   -0.00011850    1.60760509    0.00858305
    0.61250000    0.03750000   -0.00849605   -0.00014803    1.67102684    0.00849734
    0.62500000    0.03750000   -0.00839192   -0.00017785    1.73412943    0.00839381
    0.63750000    0.03750000   -0.00826974   -0.00020788    1.79674156    0.00827235
    0.65000000    0.03750000   -0.00812943   -0.00023801    1.85868771    0.00813291
    0.66250000    0.03750000   -0.00797099   -0.00026817    1.91978848    0.00797550
    0.67500000    0.03750000   -0.00779446   -0.00029826    1.97986197    0.00780017
    0.68750000    0.03750000   -0.00759995   -0.00032816    2.03872393    0.00760703
    0.70000000    0.03750000   -0.00738762   -0.00035778    2.09618922    0.00739628
    0.71250000    0.03750000   -0.00715769   -0.00038700    2.15207237    0.00716815
    0.72500000    0.03750000   -0.00691046   -0.00041572    2.20618874    0.00692296
    0.73750000    0.03750000   -0.00664629   -0.00044381    2.25835548    0.00666109
    0.75000000    0.03750000   -0.00636559   -0.00047117    2.30839245    0.00638300
    0.76250000    0.03750000   -0.00606886   -0.00049767    2.35612347    0.00608924
    0.77500000    0.03750000   -0.00575668   -0.00052319    2.40137703    0.00578040
    0.78750000    0.03750000   -0.00542968   -0.00054759    2.44398772    0.00545722
    0.80000000    0.03750000   -0.00508860   -0.00057071    2.48379693    0.00512050
    0.81250000    0.03750000   -0.00473430   -0.00059233    2.52065444    0.00477121
    0.82500000    0.03750000   -0.00436779   -0.00061216    2.55441955    0.00441048
    0.83750000    0.03750000   -0.00399030   -0.00062976    2.58496321    0.00403969
    0.85000000    0.03750000   -0.00360337   -0.00064450    2.61217038    0.00366056
    0.86250000    0.03750000   -0.00320901   -0.00065545    2.63594390    0.00327526
    0.87500000    0.03750000   -0.00280984   -0.00066127    2.65620951    0.00288660
    0.88750000    0.03750000   -0.00240940   -0.00066015    2.67292343    0.00249820
    0.90000000    0.03750000   -0.00201236   -0.00064971    2.68608157    0.00211464
    0.91250000    0.03750000   -0.00162480   -0.00062701    2.69573452    0.00174158
    0.92500000    0.03750000   -0.00125447   -0.00058871    2.70199541    0.00138574
    0.93750000    0.03750000   -0.00091076   -0.00053142    2.70508449    0.00105446
    0.95000000    0.03750000   -0.00060485   -0.00045237    2.70524523    0.00075530
    0.96250000    0.03750000   -0.00034788   -0.00035096    2.70310793    0.00049416
    0.97500000    0.03750000   -0.00015425   -0.00023048    2.69842149    0.00027733
    0.98750000    0.03750000   -0.00002498   -0.00010575    2.69439978    0.00010866
    1.00000000    0.03750000    0.00000000    0.00000000    2.68217634    0.00000000
    0.00000000    0.05000000    0.00000000    0.00000000    0.02276360    0.00000000
    0.01250000    0.05000000   -0.00002461    0.00013818    0.01072960    0.00014036
    0.02500000    0.05000000   -0.00014902    0.00029066    0.00703601    0.00032664
    0.03750000    0.05000000   -0.00033103    0.00043671    0.00249002    0.00054799
    0.05000000    0.05000000   -0.00056952    0.00056149   -0.00015492    0.00079977
    0.06250000    0.05000000   -0.00085143    0.00066050   -0.00148959    0.00107758
    0.07500000    0.05000000   -0.00116727    0.00073390   -0.00116073    0.00137881
    0.08750000    0.05000000   -0.00150755    0.00078481    0.00087939    0.00169960
    0.10000000    0.05000000   -0.00186447    0.00081743    0.00472575    0.00203579
    0.11250000    0.05000000   -0.00223170    0.00083607    0.01042568    0.00238317
    0.12500000    0.05000000   -0.00260443    0.00084455    0.01801364    0.00273794
    0.13750000    0.05000000   -0.00297912    0.00084590    0.02750869    0.00309689
    0.15000000    0.05000000   -0.00335324    0.00084238    0.03892169    0.00345743
    0.16250000    0.05000000   -0.00372500    0.00083555    0.05225832    0.00381756
    0.17500000    0.05000000   -0.00409311    0.00082643    0.06752111    0.00417570
    0.18750000    0.05000000   -0.00445664    0.00081562    0.08471071    0.00453066
    0.20000000    0.05000000   -0.00481485    0.00080349    0.10382692    0.00488143
    0.21250000    0.05000000   -0.00516712    0.00079020    0.12486871    0.00522720
    0.22500000    0.05000000   -0.00551292    0.00077583    0.14783410    0.00556725
    0.23750000    0.05000000   -0.00585174    0.00076041    0.17272023    0.00590093
    0.25000000    0.05000000   -0.00618306    0.00074392    0.19952304    0.00622765
    0.26250000    0.05000000   -0.00650639    0.00072636    0.22823682    0.00654681
    0.27500000    0.05000000   -0.00682123    0.00070768    0.25885401    0.00685785
    0.28750000    0.05000000   -0.00712709    0.00068788    0.29136487    0.00716021
    0.30000000    0.05000000   -0.00742344    0.00066691    0.32575692    0.00745334
    0.31250000    0.05000000   -0.00770978    0.00064477    0.36201469    0.00773669
    0.32500000    0.05000000   -0.00798558    0.00062141    0.40011965    0.00800972