 TITLE = "NAVIER STOKES 2D - FD"
 VARIABLES = "X" "Y" "U" "V" "P" "U_MAG"
  ZONE F=POINT, I=          81 , J=           81
    0.00000000    0.00000000    0.00000000    0.00000000    0.00000000    0.00000000
    0.01250000    0.00000000    0.00000000    0.00000000   -0.00208190    0.00000000
    0.02500000    0.00000000    0.00000000    0.00000000   -0.01110545    0.00000000
    0.03750000    0.00000000    0.00000000    0.00000000   -0.02354390    0.00000000
    0.05000000    0.00000000    0.00000000    0.00000000   -0.03557183    0.00000000
    0.06250000    0.00000000    0.00000000    0.00000000   -0.04549212    0.00000000
    0.07500000    0.00000000    0.00000000    0.00000000   -0.05239652    0.00000000
    0.08750000    0.00000000    0.00000000    0.00000000   -0.05593285    0.00000000
    0.10000000    0.00000000    0.00000000    0.00000000   -0.05600228    0.00000000
    0.11250000    0.00000000    0.00000000    0.00000000   -0.05265403    0.00000000
    0.12500000    0.00000000    0.00000000    0.00000000   -0.04600662    0.00000000
    0.13750000    0.00000000    0.00000000    0.00000000   -0.03620700    0.00000000
    0.15000000    0.00000000    0.00000000    0.00000000   -0.02340480    0.00000000
    0.16250000    0.00000000    0.00000000    0.00000000   -0.00773836    0.00000000
    0.17500000    0.00000000    0.00000000    0.00000000    0.01067227    0.00000000
    0.18750000    0.00000000    0.00000000    0.00000000    0.03172789    0.00000000
    0.20000000    0.00000000    0.00000000    0.00000000    0.05534996    0.00000000
    0.21250000    0.00000000    0.00000000    0.00000000    0.08147875    0.00000000
    0.22500000    0.00000000    0.00000000    0.00000000    0.11007069    0.00000000
    0.23750000    0.00000000    0.00000000    0.00000000    0.14109523    0.00000000
    0.25000000    0.00000000    0.00000000    0.00000000    0.17453167    0.00000000
    0.26250000    0.00000000    0.00000000    0.00000000    0.21036595    0.00000000
    0.27500000    0.00000000    0.00000000    0.00000000    0.24858771    0.00000000
    0.28750000    0.00000000    0.00000000    0.00000000    0.28918744    0.00000000
    0.30000000    0.00000000    0.00000000    0.00000000    0.33215384    0.00000000
    0.31250000    0.00000000    0.00000000    0.00000000    0.37747135    0.00000000
    0.32500000    0.00000000    0.00000000    0.00000000    0.42511785    0.00000000
    0.33750000    0.00000000    0.00000000    0.00000000    0.47506240    0.00000000
    0.35000000    0.00000000    0.00000000    0.00000000    0.52726307    0.00000000
    0.36250000    0.00000000    0.00000000    0.00000000    0.58166491    0.00000000
    0.37500000    0.00000000    0.00000000    0.00000000    0.63819783    0.00000000
    0.38750000    0.00000000    0.00000000    0.00000000    0.69677480    0.00000000
    0.40000000    0.00000000    0.00000000    0.00000000    0.75729008    0.00000000
    0.41250000    0.00000000    0.00000000    0.00000000    0.81961757    0.00000000
    0.42500000    0.00000000    0.00000000    0.00000000    0.88360936    0.00000000
    0.43750000    0.00000000    0.00000000    0.00000000    0.94909432    0.00000000
    0.45000000    0.00000000    0.00000000    0.00000000    1.01587726    0.00000000
    0.46250000    0.00000000    0.00000000    0.00000000    1.08373846    0.00000000
    0.47500000    0.00000000    0.00000000    0.00000000    1.15243357    0.00000000
    0.48750000    0.00000000    0.00000000    0.00000000    1.22169396    0.00000000
    0.50000000    0.00000000    0.00000000    0.00000000    1.29122750    0.00000000
    0.51250000    0.00000000    0.00000000    0.00000000    1.36072090    0.00000000
    0.52500000    0.00000000    0.00000000    0.00000000    1.42984151    0.00000000
    0.53750000    0.00000000    0.00000000    0.00000000    1.49823982    0.00000000
    0.55000000    0.00000000    0.00000000    0.00000000    1.56555358    0.00000000
    0.56250000    0.00000000    0.00000000    0.00000000    1.63141198    0.00000000
    0.57500000    0.00000000    0.00000000    0.00000000    1.69544036    0.00000000
    0.58750000    0.00000000    0.00000000    0.00000000    1.75726536    0.00000000
    0.60000000    0.00000000    0.00000000    0.00000000    1.81652046    0.00000000
    0.61250000    0.00000000    0.00000000    0.00000000    1.87285232    0.00000000
    0.62500000    0.00000000    0.00000000    0.00000000    1.92592694    0.00000000
    0.63750000    0.00000000    0.00000000    0.00000000    1.97543466    0.00000000
    0.65000000    0.00000000    0.00000000    0.00000000    2.02109594    0.00000000
    0.66250000    0.00000000    0.00000000    0.00000000    2.06266802    0.00000000
    0.67500000    0.00000000    0.00000000    0.00000000    2.09994866    0.00000000
    0.68750000    0.00000000    0.00000000    0.00000000    2.13277970    0.00000000
    0.70000000    0.00000000    0.00000000    0.00000000    2.16105164    0.00000000
    0.71250000    0.00000000    0.00000000    0.00000000    2.18470484    0.00000000
    0.72500000    0.00000000    0.00000000    0.00000000    2.20373122    0.00000000
    0.73750000    0.00000000    0.00000000    0.00000000    2.21817521    0.00000000
    0.75000000    0.00000000    0.00000000    0.00000000    2.22813210    0.00000000
    0.76250000    0.00000000    0.00000000    0.00000000    2.23374773    0.00000000
    0.77500000    0.00000000    0.00000000    0.00000000    2.23521566    0.00000000
    0.78750000    0.00000000    0.00000000    0.00000000    2.23277458    0.00000000
    0.80000000    0.00000000    0.00000000    0.00000000    2.22670525    0.00000000
    0.81250000    0.00000000    0.00000000    0.00000000    2.21732680    0.00000000
    0.82500000    0.00000000    0.00000000    0.00000000    2.20499377    0.00000000
    0.83750000    0.00000000    0.00000000    0.00000000    2.19009264    0.00000000
    0.85000000    0.00000000    0.00000000    0.00000000    2.17303993    0.00000000
    0.86250000    0.00000000    0.00000000    0.00000000    2.15428050    0.00000000
    0.87500000    0.00000000    0.00000000    0.00000000    2.13428822    0.00000000
    0.88750000    0.00000000    0.00000000    0.00000000    2.11356821    0.00000000
    0.90000000    0.00000000    0.00000000    0.00000000    2.09266271    0.00000000
    0.91250000    0.00000000    0.00000000    0.00000000    2.07216068    0.00000000
    0.92500000    0.00000000    0.00000000    0.00000000    2.05271417    0.00000000
    0.93750000    0.00000000    0.00000000    0.00000000    2.03506020    0.00000000
    0.95000000    0.00000000    0.00000000    0.00000000    2.02005907    0.00000000
    0.96250000    0.00000000    0.00000000    0.00000000    2.00870511    0.00000000
    0.97500000    0.00000000    0.00000000    0.00000000    2.00218108    0.00000000
    0.98750000    0.00000000    0.00000000    0.00000000    2.00102751    0.00000000
    1.00000000    0.00000000    0.00000000    0.00000000    2.00480751    0.00000000
    0.00000000    0.01250000    0.00000000    0.00000000    0.00206701    0.00000000
    0.01250000    0.01250000    0.00000279   -0.00000271   -0.00003603    0.00000390
    0.02500000    0.01250000   -0.00002366    0.00000849   -0.00492713    0.00002514
    0.03750000    0.01250000   -0.00008662    0.00002254   -0.01189312    0.00008950
    0.05000000    0.01250000   -0.00018735    0.00003438   -0.01854440    0.00019048
    0.06250000    0.01250000   -0.00031990    0.00004379   -0.02397225    0.00032288
    0.07500000    0.01250000   -0.00047825    0.00005085   -0.02734056    0.00048094
    0.08750000    0.01250000   -0.00065630    0.00005598   -0.02823248    0.00065868
    0.10000000    0.01250000   -0.00084889    0.00005955   -0.02640166    0.00085097
    0.11250000    0.01250000   -0.00105175    0.00006192   -0.02174947    0.00105357
    0.12500000    0.01250000   -0.00126153    0.00006338   -0.01425923    0.00126312
    0.13750000    0.01250000   -0.00147564    0.00006418   -0.00396503    0.00147703
    0.15000000    0.01250000   -0.00169213    0.00006450    0.00907399    0.00169336
    0.16250000    0.01250000   -0.00190956    0.00006448    0.02478903    0.00191065
    0.17500000    0.01250000   -0.00212687    0.00006422    0.04311165    0.00212784
    0.18750000    0.01250000   -0.00234327    0.00006379    0.06397940    0.00234414
    0.20000000    0.01250000   -0.00255819    0.00006323    0.08733845    0.00255897
    0.21250000    0.01250000   -0.00277116    0.00006257    0.11314439    0.00277187
    0.22500000    0.01250000   -0.00298181    0.00006183    0.14136175    0.00298245
    0.23750000    0.01250000   -0.00318978    0.00006101    0.17196261    0.00319036
    0.25000000    0.01250000   -0.00339473    0.00006009    0.20492488    0.00339526
    0.26250000    0.01250000   -0.00359630    0.00005908    0.24023025    0.00359679
    0.27500000    0.01250000   -0.00379409    0.00005795    0.27786211    0.00379454
    0.28750000    0.01250000   -0.00398767    0.00005668    0.31780334    0.00398807
    0.30000000    0.01250000   -0.00417653    0.00005527    0.36003421    0.00417690
    0.31250000    0.01250000   -0.00436014    0.00005369    0.40453034    0.00436047
    0.32500000    0.01250000   -0.00453788    0.00005191    0.45126061    0.00453817
    0.33750000    0.01250000   -0.00470909    0.00004993    0.50018524    0.00470935
    0.35000000    0.01250000   -0.00487305    0.00004773    0.55125385    0.00487329
    0.36250000    0.01250000   -0.00502899    0.00004528    0.60440357    0.00502920
    0.37500000    0.01250000   -0.00517609    0.00004257    0.65955732    0.00517627
    0.38750000    0.01250000   -0.00531349    0.00003959    0.71662206    0.00531364
    0.40000000    0.01250000   -0.00544029    0.00003633    0.77548731    0.00544041
    0.41250000    0.01250000   -0.00555556    0.00003278    0.83602369    0.00555566
    0.42500000    0.01250000   -0.00565837    0.00002893    0.89808160    0.00565845
    0.43750000    0.01250000   -0.00574778    0.00002479    0.96149027    0.00574783
    0.45000000    0.01250000   -0.00582285    0.00002036    1.02605706    0.00582289
    0.46250000    0.01250000   -0.00588269    0.00001565    1.09156719    0.00588271
    0.47500000    0.01250000   -0.00592643    0.00001067    1.15778377    0.00592644
    0.48750000    0.01250000   -0.00595326    0.00000545    1.22444828    0.00595326
    0.50000000    0.01250000   -0.00596246    0.00000001    1.29128124    0.00596246
    0.51250000    0.01250000   -0.00595340   -0.00000562    1.35798555    0.00595340
    0.52500000    0.01250000   -0.00592556   -0.00001140    1.42424752    0.00592557
    0.53750000    0.01250000   -0.00587855   -0.00001728    1.48973836    0.00587858
    0.55000000    0.01250000   -0.00581215   -0.00002322    1.55411920    0.00581220
    0.56250000    0.01250000   -0.00572627   -0.00002916    1.61704464    0.00572634
    0.57500000    0.01250000   -0.00562101   -0.00003505    1.67816708    0.00562111
    0.58750000    0.01250000   -0.00549664   -0.00004082    1.73714154    0.00549679
    0.60000000    0.01250000   -0.00535364   -0.00004642    1.79363074    0.00535384
    0.61250000    0.01250000   -0.00519265   -0.00005178    1.84731080    0.00519291
    0.62500000    0.01250000   -0.00501455   -0.00005684    1.89787646    0.00501487
    0.63750000    0.01250000   -0.00482034   -0.00006155    1.94504596    0.00482074
    0.65000000    0.01250000   -0.00461127   -0.00006584    1.98856686    0.00461174
    0.66250000    0.01250000   -0.00438870   -0.00006967    2.02822115    0.00438925
    0.67500000    0.01250000   -0.00415417   -0.00007299    2.06382862    0.00415481
    0.68750000    0.01250000   -0.00390936   -0.00007576    2.09525120    0.00391010
    0.70000000    0.01250000   -0.00365607   -0.00007795    2.12239619    0.00365690
    0.71250000    0.01250000   -0.00339619   -0.00007952    2.14521767    0.00339712
    0.72500000    0.01250000   -0.00313169   -0.00008046    2.16371878    0.00313272
    0.73750000    0.01250000   -0.00286462   -0.00008074    2.17795168    0.00286576
    0.75000000    0.01250000   -0.00259705   -0.00008038    2.18801722    0.00259830
    0.76250000    0.01250000   -0.00233111   -0.00007935    2.19406431    0.00233246
    0.77500000    0.01250000   -0.00206891   -0.00007766    2.19628745    0.00207037
    0.78750000    0.01250000   -0.00181259   -0.00007532    2.19492498    0.00181416
    0.80000000    0.01250000   -0.00156428   -0.00007233    2.19025574    0.00156595
    0.81250000    0.01250000   -0.00132607   -0.00006870    2.18259624    0.00132785
    0.82500000    0.01250000   -0.00110008   -0.00006445    2.17229725    0.00110196
    0.83750000    0.01250000   -0.00088835   -0.00005957    2.15974063    0.00089035
    0.85000000    0.01250000   -0.00069293   -0.00005410    2.14533646    0.00069504
    0.86250000    0.01250000   -0.00051580   -0.00004804    2.12952047    0.00051804
    0.87500000    0.01250000   -0.00035887   -0.00004141    2.11275231    0.00036125
    0.88750000    0.01250000   -0.00022392   -0.00003427    2.09551450    0.00022653
    0.90000000    0.01250000   -0.00011256   -0.00002667    2.07831231    0.00011568
    0.91250000    0.01250000   -0.00002608   -0.00001871    2.06167427    0.00003210
    0.92500000    0.01250000    0.00003470   -0.00001056    2.04615346    0.00003627
    0.93750000    0.01250000    0.00006976   -0.00000250    2.03232265    0.00006980
    0.95000000    0.01250000    0.00008032    0.00000499    2.02078347    0.00008047
    0.96250000    0.01250000    0.00006940    0.00001110    2.01207432    0.00007029
    0.97500000    0.01250000    0.00004385    0.00001413    2.00690173    0.00004607
    0.98750000    0.01250000    0.00001181    0.00001187    2.00480350    0.00001675
    1.00000000    0.01250000    0.00000000    0.00000000    2.00858745    0.00000000
    0.00000000    0.02500000    0.00000000    0.00000000    0.01124759    0.00000000
    0.01250000    0.02500000   -0.00000861    0.00002378    0.00485783    0.00002529
    0.02500000    0.02500000   -0.00008429    0.00008300   -0.00005662    0.00011829
    0.03750000    0.02500000   -0.00021993    0.00015184   -0.00680913    0.00026725
    0.05000000    0.02500000   -0.00041818    0.00021446   -0.01267341    0.00046997
    0.06250000    0.02500000   -0.00066969    0.00026677   -0.01724847    0.00072087
    0.07500000    0.02500000   -0.00096543    0.00030797   -0.01977794    0.00101336
    0.08750000    0.02500000   -0.00129583    0.00033908   -0.01993256    0.00133946
    0.10000000    0.02500000   -0.00165248    0.00036166   -0.01748737    0.00169159
    0.11250000    0.02500000   -0.00202822    0.00037735   -0.01234859    0.00206303
    0.12500000    0.02500000   -0.00241726    0.00038764   -0.00449050    0.00244814
    0.13750000    0.02500000   -0.00281497    0.00039381    0.00606682    0.00284239
    0.15000000    0.02500000   -0.00321780    0.00039689    0.01927977    0.00324219
    0.16250000    0.02500000   -0.00362302    0.00039768    0.03509442    0.00364478
    0.17500000    0.02500000   -0.00402854    0.00039678    0.05345543    0.00404804
    0.18750000    0.02500000   -0.00443281    0.00039462    0.07431118    0.00445034
    0.20000000    0.02500000   -0.00483459    0.00039150    0.09761648    0.00485041
    0.21250000    0.02500000   -0.00523290    0.00038760    0.12333339    0.00524724
    0.22500000    0.02500000   -0.00562692    0.00038303    0.15143103    0.00563994
    0.23750000    0.02500000   -0.00601589    0.00037782    0.18188454    0.00602775
    0.25000000    0.02500000   -0.00639909    0.00037195    0.21467359    0.00640989
    0.26250000    0.02500000   -0.00677576    0.00036538    0.24978061    0.00678560
    0.27500000    0.02500000   -0.00714510    0.00035805    0.28718893    0.00715407
    0.28750000    0.02500000   -0.00750626    0.00034986    0.32688087    0.00751441
    0.30000000    0.02500000   -0.00785827    0.00034071    0.36883572    0.00786565
    0.31250000    0.02500000   -0.00820010    0.00033051    0.41302786    0.00820676
    0.32500000    0.02500000   -0.00853061    0.00031915    0.45942486    0.00853658
    0.33750000    0.02500000   -0.00884857    0.00030652    0.50798558    0.00885388
    0.35000000    0.02500000   -0.00915265    0.00029253    0.55865838    0.00915732
    0.36250000    0.02500000   -0.00944142    0.00027709    0.61137927    0.00944549
    0.37500000    0.02500000   -0.00971341    0.00026011    0.66607025    0.00971689
    0.38750000    0.02500000   -0.00996705    0.00024152    0.72263767    0.00996998
    0.40000000    0.02500000   -0.01020072    0.00022128    0.78097075    0.01020312
    0.41250000    0.02500000   -0.01041277    0.00019934    0.84094015    0.01041468
    0.42500000    0.02500000   -0.01060152    0.00017569    0.90239677    0.01060298
    0.43750000    0.02500000   -0.01076532    0.00015033    0.96517080    0.01076637
    0.45000000    0.02500000   -0.01090251    0.00012330    1.02907104    0.01090320
    0.46250000    0.02500000   -0.01101150    0.00009467    1.09388468    0.01101191
    0.47500000    0.02500000   -0.01109080    0.00006452    1.15937729    0.01109099
    0.48750000    0.02500000   -0.01113901    0.00003297    1.22529341    0.01113906
    0.50000000    0.02500000   -0.01115488    0.00000020    1.29135744    0.01115488
    0.51250000    0.02500000   -0.01113734   -0.00003362    1.35727574    0.01113739
    0.52500000    0.02500000   -0.01108552   -0.00006826    1.42273847    0.01108573
    0.53750000    0.02500000   -0.01099878   -0.00010346    1.48742206    0.01099927
    0.55000000    0.02500000   -0.01087676   -0.00013894    1.55099288    0.01087765
    0.56250000    0.02500000   -0.01071936   -0.00017440    1.61311099    0.01072078
    0.57500000    0.02500000   -0.01052681   -0.00020952    1.67343443    0.01052890
    0.58750000    0.02500000   -0.01029963   -0.00024396    1.73162398    0.01030252
    0.60000000    0.02500000   -0.01003870   -0.00027737    1.78734833    0.01004253
    0.61250000    0.02500000   -0.00974521   -0.00030941    1.84028940    0.00975012
    0.62500000    0.02500000   -0.00942068   -0.00033973    1.89014751    0.00942680
    0.63750000    0.02500000   -0.00906696   -0.00036800    1.93664664    0.00907442
    0.65000000    0.02500000   -0.00868622   -0.00039390    1.97953996    0.00869514
    0.66250000    0.02500000   -0.00828090   -0.00041715    2.01861441    0.00829140
    0.67500000    0.02500000   -0.00785371   -0.00043747    2.05369480    0.00786589
    0.68750000    0.02500000   -0.00740762   -0.00045463    2.08464782    0.00742155
    0.70000000    0.02500000   -0.00694577   -0.00046843    2.11138494    0.00696155
    0.71250000    0.02500000   -0.00647152   -0.00047872    2.13386452    0.00648920
    0.72500000    0.02500000   -0.00598834   -0.00048534    2.15209346    0.00600797
    0.73750000    0.02500000   -0.00549983   -0.00048822    2.16612744    0.00552146
    0.75000000    0.02500000   -0.00500969   -0.00048727    2.17607085    0.00503333
    0.76250000    0.02500000   -0.00452166   -0.00048246    2.18207564    0.00454733
    0.77500000    0.02500000   -0.00403952   -0.00047378    2.18433948    0.00406721
    0.78750000    0.02500000   -0.00356708   -0.00046121    2.18310349    0.00359678
    0.80000000    0.02500000   -0.00310815   -0.00044479    2.17864917    0.00313982
    0.81250000    0.02500000   -0.00266652   -0.00042453    2.17129534    0.00270010
    0.82500000    0.02500000   -0.00224597   -0.00040047    2.16139452    0.00228139
    0.83750000    0.02500000   -0.00185024   -0.00037268    2.14932956    0.00188740
    0.85000000    0.02500000   -0.00148300   -0.00034122    2.13551013    0.00152175
    0.86250000    0.02500000   -0.00114784   -0.00030621    2.12036960    0.00118798
    0.87500000    0.02500000   -0.00084818   -0.00026783    2.10436220    0.00088946
    0.88750000    0.02500000   -0.00058723   -0.00022635    2.08796067    0.00062934
    0.90000000    0.02500000   -0.00036779   -0.00018223    2.07165438    0.00041046
    0.91250000    0.02500000   -0.00019206   -0.00013619    2.05594744    0.00023545
    0.92500000    0.02500000   -0.00006136   -0.00008938    2.04135809    0.00010841
    0.93750000    0.02500000    0.00002440   -0.00004359    2.02841030    0.00004996
    0.95000000    0.02500000    0.00006744   -0.00000169    2.01764651    0.00006746
    0.96250000    0.02500000    0.00007280    0.00003188    2.00952601    0.00007948
    0.97500000    0.02500000    0.00005092    0.00005033    2.00474625    0.00007159
    0.98750000    0.02500000    0.00001403    0.00004385    2.00269337    0.00004604
    1.00000000    0.02500000    0.00000000    0.00000000    2.00750613    0.00000000
    0.00000000    0.03750000    0.00000000    0.00000000    0.02410991    0.00000000
    0.01250000    0.03750000   -0.00002343    0.00008831    0.01182264    0.00009137
    0.02500000    0.03750000   -0.00015764    0.00021973    0.00659809    0.00027043
    0.03750000    0.03750000   -0.00036988    0.00036104   -0.00023121    0.00051687
    0.05000000    0.03750000   -0.00066281    0.00048959   -0.00530366    0.00082403
    0.06250000    0.03750000   -0.00102352    0.00059824   -0.00890664    0.00118553
    0.07500000    0.03750000   -0.00144129    0.00068526   -0.01041228    0.00159590
    0.08750000    0.03750000   -0.00190450    0.00075218   -0.00962898    0.00204765
    0.10000000    0.03750000   -0.00240283    0.00080172   -0.00637813    0.00253305
    0.11250000    0.03750000   -0.00292728    0.00083690   -0.00058475    0.00304456
    0.12500000    0.03750000   -0.00347037    0.00086060    0.00778043    0.00357549
    0.13750000    0.03750000   -0.00402603    0.00087536    0.01870995    0.00412009
    0.15000000    0.03750000   -0.00458942    0.00088325    0.03217709    0.00467364
    0.16250000    0.03750000   -0.00515674    0.00088594    0.04814524    0.00523229
    0.17500000    0.03750000   -0.00572505    0.00088469    0.06657510    0.00579300
    0.18750000    0.03750000   -0.00629202    0.00088045    0.08742885    0.00635332
    0.20000000    0.03750000   -0.00685581    0.00087386    0.11067259    0.00691128
    0.21250000    0.03750000   -0.00741493    0.00086534    0.13627719    0.00746525
    0.22500000    0.03750000   -0.00796806    0.00085513    0.16421832    0.00801381
    0.23750000    0.03750000   -0.00851403    0.00084335    0.19447570    0.00855569
    0.25000000    0.03750000   -0.00905171    0.00082997    0.22703194    0.00908968
    0.26250000    0.03750000   -0.00957995    0.00081494    0.26187113    0.00961455
    0.27500000    0.03750000   -0.01009757    0.00079810    0.29897724    0.01012906
    0.28750000    0.03750000   -0.01060329    0.00077930    0.33833247    0.01063189
    0.30000000    0.03750000   -0.01109572    0.00075832    0.37991548    0.01112161
    0.31250000    0.03750000   -0.01157339    0.00073497    0.42369970    0.01159670
    0.32500000    0.03750000   -0.01203468    0.00070902    0.46965157    0.01205555
    0.33750000    0.03750000   -0.01247785    0.00068027    0.51772881    0.01249638
    0.35000000    0.03750000   -0.01290107    0.00064852    0.56787868    0.01291736
    0.36250000    0.03750000   -0.01330238    0.00061357    0.62003632    0.01331652
    0.37500000    0.03750000   -0.01367971    0.00057527    0.67412311    0.01369180
    0.38750000    0.03750000   -0.01403095    0.00053348    0.73004511    0.01404109
    0.40000000    0.03750000   -0.01435389    0.00048809    0.78769163    0.01436218
    0.41250000    0.03750000   -0.01464629    0.00043903    0.84693385    0.01465287
    0.42500000    0.03750000   -0.01490590    0.00038630    0.90762366    0.01491090
    0.43750000    0.03750000   -0.01513049    0.00032990    0.96959272    0.01513409
    0.45000000    0.03750000   -0.01531787    0.00026995    1.03265188    0.01532025
    0.46250000    0.03750000   -0.01546594    0.00020657    1.09659088    0.01546732
    0.47500000    0.03750000   -0.01557272    0.00013999    1.16117838    0.01557335
    0.48750000    0.03750000   -0.01563640    0.00007048    1.22616248    0.01563656
    0.50000000    0.03750000   -0.01565536   -0.00000161    1.29127181    0.01565536
    0.51250000    0.03750000   -0.01562822   -0.00007586    1.35621712    0.01562841
    0.52500000    0.03750000   -0.01555391   -0.00015178    1.42069339    0.01555465
    0.53750000    0.03750000   -0.01543165   -0.00022883    1.48438243    0.01543335
    0.55000000    0.03750000   -0.01526103   -0.00030640    1.54695622    0.01526410
    0.56250000    0.03750000   -0.01504200   -0.00038384    1.60808060    0.01504690
    0.57500000    0.03750000   -0.01477495   -0.00046048    1.66741956    0.01478213
    0.58750000    0.03750000   -0.01446067   -0.00053558    1.72464003    0.01447058
    0.60000000    0.03750000   -0.01410038   -0.00060842    1.77941688    0.01411350
    0.61250000    0.03750000   -0.01369575   -0.00067826    1.83143801    0.01371254
    0.62500000    0.03750000   -0.01324888   -0.00074437    1.88040981    0.01326978
    0.63750000    0.03750000   -0.01276229   -0.00080607    1.92606245    0.01278772
    0.65000000    0.03750000   -0.01223890   -0.00086268    1.96815490    0.01226927
    0.66250000    0.03750000   -0.01168201   -0.00091359    2.00647988    0.01171768
    0.67500000    0.03750000   -0.01109526   -0.00095824    2.04086804    0.01113656
    0.68750000    0.03750000   -0.01048260   -0.00099614    2.07119154    0.01052983
    0.70000000    0.03750000   -0.00984827   -0.00102685    2.09736746    0.00990166
    0.71250000    0.03750000   -0.00919671   -0.00105003    2.11935964    0.00925646
    0.72500000    0.03750000   -0.00853259   -0.00106538    2.13718031    0.00859884
    0.73750000    0.03750000   -0.00786070   -0.00107270    2.15089068    0.00793355
    0.75000000    0.03750000   -0.00718596   -0.00107182    2.16060047    0.00726545
    0.76250000    0.03750000   -0.00651339   -0.00106263    2.16646709    0.00659950
    0.77500000    0.03750000   -0.00584804   -0.00104509    2.16869357    0.00594069
    0.78750000    0.03750000   -0.00519501   -0.00101918    2.16752631    0.00529404
    0.80000000    0.03750000   -0.00455942   -0.00098490    2.16325191    0.00466458
    0.81250000    0.03750000   -0.00394636   -0.00094231    2.15619382    0.00405730
    0.82500000    0.03750000   -0.00336093   -0.00089147    2.14670851    0.00347715
    0.83750000    0.03750000   -0.00280814   -0.00083250    2.13518143    0.00292894
    0.85000000    0.03750000   -0.00229294   -0.00076556    2.12202295    0.00241736
    0.86250000    0.03750000   -0.00182013   -0.00069092    2.10766407    0.00194686
    0.87500000    0.03750000   -0.00139428   -0.00060901    2.09255219    0.00152148
    0.88750000    0.03750000   -0.00101959   -0.00052049    2.07714670    0.00114476
    0.90000000    0.03750000   -0.00069971   -0.00042642    2.06191449    0.00081941
    0.91250000    0.03750000   -0.00043745   -0.00032843    2.04732485    0.00054702
    0.92500000    0.03750000   -0.00023437   -0.00022902    2.03384435    0.00032769
    0.93750000    0.03750000   -0.00009022   -0.00013201    2.02192592    0.00015990
    0.95000000    0.03750000   -0.00000217   -0.00004311    2.01201547    0.00004316
    0.96250000    0.03750000    0.00003590    0.00002922    2.00446618    0.00004629
    0.97500000    0.03750000    0.00003572    0.00007284    1.99983307    0.00008113
    0.98750000    0.03750000    0.00001136    0.00007014    1.99756473    0.00007105
    1.00000000    0.03750000    0.00000000    0.00000000    2.00134098    0.00000000
    0.00000000    0.05000000    0.00000000    0.00000000    0.03687300    0.00000000
    0.01250000    0.05000000   -0.00003690    0.00019422    0.01844960    0.00019769
    0.02500000    0.05000000   -0.00022904    0.00042473    0.01232989    0.00048255
    0.03750000    0.05000000   -0.00051589    0.00065717    0.00458088    0.00083547
    0.05000000    0.05000000   -0.00089885    0.00086633   -0.00049479    0.00124838
    0.06250000    0.05000000   -0.00136054    0.00104353   -0.00380652    0.00171465
    0.07500000    0.05000000   -0.00188858    0.00118674   -0.00481509    0.00223050
    0.08750000    0.05000000   -0.00246976    0.00129818   -0.00347674    0.00279016
    0.10000000    0.05000000   -0.00309249    0.00138178    0.00031902    0.00338715
    0.11250000    0.05000000   -0.00374654    0.00144208    0.00660263    0.00401450
    0.12500000    0.05000000   -0.00442334    0.00148347    0.01538223    0.00466547
    0.13750000    0.05000000   -0.00511577    0.00150987    0.02664239    0.00533393
    0.15000000    0.05000000   -0.00581808    0.00152458    0.04035683    0.00601452
    0.16250000    0.05000000   -0.00652568    0.00153028    0.05649395    0.00670270
    0.17500000    0.05000000   -0.00723487    0.00152903    0.07502164    0.00739468
    0.18750000    0.05000000   -0.00794273    0.00152238    0.09590994    0.00808731
    0.20000000    0.05000000   -0.00864686    0.00151142    0.11913250    0.00877796
    0.21250000    0.05000000   -0.00934526    0.00149689    0.14466703    0.00946439
    0.22500000    0.05000000   -0.01003620    0.00147921    0.17249501    0.01014462
    0.23750000    0.05000000   -0.01071808    0.00145858    0.20260096    0.01081687
    0.25000000    0.05000000   -0.01138938    0.00143504    0.23497130    0.01147943
    0.26250000    0.05000000   -0.01204858    0.00140846    0.26959309    0.01213062
    0.27500000    0.05000000   -0.01269411    0.00137865    0.30645259    0.01276875
    0.28750000    0.05000000   -0.01332430    0.00134534    0.34553370    0.01339205
    0.30000000    0.05000000   -0.01393739    0.00130821    0.38681642    0.01399865
    0.31250000    0.05000000   -0.01453148    0.00126694    0.43027524    0.01458660
    0.32500000    0.05000000   -0.01510454    0.00122117    0.47587750    0.01515382