 TITLE = "NAVIER STOKES 2D - FD"
 VARIABLES = "X" "Y" "U" "V" "P" "U_MAG"
  ZONE F=POINT, I=          81 , J=           81
    0.00000000    0.00000000    0.00000000    0.00000000    0.00000000    0.00000000
    0.01250000    0.00000000    0.00000000    0.00000000   -0.00228569    0.00000000
    0.02500000    0.00000000    0.00000000    0.00000000   -0.00899545    0.00000000
    0.03750000    0.00000000    0.00000000    0.00000000   -0.01731429    0.00000000
    0.05000000    0.00000000    0.00000000    0.00000000   -0.02446917    0.00000000
    0.06250000    0.00000000    0.00000000    0.00000000   -0.02947034    0.00000000
    0.07500000    0.00000000    0.00000000    0.00000000   -0.03191575    0.00000000
    0.08750000    0.00000000    0.00000000    0.00000000   -0.03177745    0.00000000
    0.10000000    0.00000000    0.00000000    0.00000000   -0.02915261    0.00000000
    0.11250000    0.00000000    0.00000000    0.00000000   -0.02418151    0.00000000
    0.12500000    0.00000000    0.00000000    0.00000000   -0.01699225    0.00000000
    0.13750000    0.00000000    0.00000000    0.00000000   -0.00768714    0.00000000
    0.15000000    0.00000000    0.00000000    0.00000000    0.00365918    0.00000000
    0.16250000    0.00000000    0.00000000    0.00000000    0.01699782    0.00000000
    0.17500000    0.00000000    0.00000000    0.00000000    0.03229757    0.00000000
    0.18750000    0.00000000    0.00000000    0.00000000    0.04953754    0.00000000
    0.20000000    0.00000000    0.00000000    0.00000000    0.06870412    0.00000000
    0.21250000    0.00000000    0.00000000    0.00000000    0.08978664    0.00000000
    0.22500000    0.00000000    0.00000000    0.00000000    0.11277401    0.00000000
    0.23750000    0.00000000    0.00000000    0.00000000    0.13765533    0.00000000
    0.25000000    0.00000000    0.00000000    0.00000000    0.16441919    0.00000000
    0.26250000    0.00000000    0.00000000    0.00000000    0.19305214    0.00000000
    0.27500000    0.00000000    0.00000000    0.00000000    0.22353934    0.00000000
    0.28750000    0.00000000    0.00000000    0.00000000    0.25586425    0.00000000
    0.30000000    0.00000000    0.00000000    0.00000000    0.29000658    0.00000000
    0.31250000    0.00000000    0.00000000    0.00000000    0.32594153    0.00000000
    0.32500000    0.00000000    0.00000000    0.00000000    0.36364012    0.00000000
    0.33750000    0.00000000    0.00000000    0.00000000    0.40307038    0.00000000
    0.35000000    0.00000000    0.00000000    0.00000000    0.44419970    0.00000000
    0.36250000    0.00000000    0.00000000    0.00000000    0.48699408    0.00000000
    0.37500000    0.00000000    0.00000000    0.00000000    0.53141265    0.00000000
    0.38750000    0.00000000    0.00000000    0.00000000    0.57740589    0.00000000
    0.40000000    0.00000000    0.00000000    0.00000000    0.62492035    0.00000000
    0.41250000    0.00000000    0.00000000    0.00000000    0.67390067    0.00000000
    0.42500000    0.00000000    0.00000000    0.00000000    0.72428719    0.00000000
    0.43750000    0.00000000    0.00000000    0.00000000    0.77601522    0.00000000
    0.45000000    0.00000000    0.00000000    0.00000000    0.82901239    0.00000000
    0.46250000    0.00000000    0.00000000    0.00000000    0.88319774    0.00000000
    0.47500000    0.00000000    0.00000000    0.00000000    0.93848978    0.00000000
    0.48750000    0.00000000    0.00000000    0.00000000    0.99480402    0.00000000
    0.50000000    0.00000000    0.00000000    0.00000000    1.05204161    0.00000000
    0.51250000    0.00000000    0.00000000    0.00000000    1.11010038    0.00000000
    0.52500000    0.00000000    0.00000000    0.00000000    1.16887858    0.00000000
    0.53750000    0.00000000    0.00000000    0.00000000    1.22826037    0.00000000
    0.55000000    0.00000000    0.00000000    0.00000000    1.28812742    0.00000000
    0.56250000    0.00000000    0.00000000    0.00000000    1.34835879    0.00000000
    0.57500000    0.00000000    0.00000000    0.00000000    1.40882128    0.00000000
    0.58750000    0.00000000    0.00000000    0.00000000    1.46938269    0.00000000
    0.60000000    0.00000000    0.00000000    0.00000000    1.52990209    0.00000000
    0.61250000    0.00000000    0.00000000    0.00000000    1.59023376    0.00000000
    0.62500000    0.00000000    0.00000000    0.00000000    1.65023071    0.00000000
    0.63750000    0.00000000    0.00000000    0.00000000    1.70973741    0.00000000
    0.65000000    0.00000000    0.00000000    0.00000000    1.76859957    0.00000000
    0.66250000    0.00000000    0.00000000    0.00000000    1.82665546    0.00000000
    0.67500000    0.00000000    0.00000000    0.00000000    1.88374444    0.00000000
    0.68750000    0.00000000    0.00000000    0.00000000    1.93970175    0.00000000
    0.70000000    0.00000000    0.00000000    0.00000000    1.99436241    0.00000000
    0.71250000    0.00000000    0.00000000    0.00000000    2.04756134    0.00000000
    0.72500000    0.00000000    0.00000000    0.00000000    2.09913301    0.00000000
    0.73750000    0.00000000    0.00000000    0.00000000    2.14891460    0.00000000
    0.75000000    0.00000000    0.00000000    0.00000000    2.19674317    0.00000000
    0.76250000    0.00000000    0.00000000    0.00000000    2.24246091    0.00000000
    0.77500000    0.00000000    0.00000000    0.00000000    2.28591112    0.00000000
    0.78750000    0.00000000    0.00000000    0.00000000    2.32694350    0.00000000
    0.80000000    0.00000000    0.00000000    0.00000000    2.36541001    0.00000000
    0.81250000    0.00000000    0.00000000    0.00000000    2.40116975    0.00000000
    0.82500000    0.00000000    0.00000000    0.00000000    2.43408416    0.00000000
    0.83750000    0.00000000    0.00000000    0.00000000    2.46401969    0.00000000
    0.85000000    0.00000000    0.00000000    0.00000000    2.49084194    0.00000000
    0.86250000    0.00000000    0.00000000    0.00000000    2.51441544    0.00000000
    0.87500000    0.00000000    0.00000000    0.00000000    2.53459615    0.00000000
    0.88750000    0.00000000    0.00000000    0.00000000    2.55122939    0.00000000
    0.90000000    0.00000000    0.00000000    0.00000000    2.56414641    0.00000000
    0.91250000    0.00000000    0.00000000    0.00000000    2.57317241    0.00000000
    0.92500000    0.00000000    0.00000000    0.00000000    2.57814634    0.00000000
    0.93750000    0.00000000    0.00000000    0.00000000    2.57897708    0.00000000
    0.95000000    0.00000000    0.00000000    0.00000000    2.57572854    0.00000000
    0.96250000    0.00000000    0.00000000    0.00000000    2.56889969    0.00000000
    0.97500000    0.00000000    0.00000000    0.00000000    2.55964382    0.00000000
    0.98750000    0.00000000    0.00000000    0.00000000    2.55137567    0.00000000
    1.00000000    0.00000000    0.00000000    0.00000000    2.54770636    0.00000000
    0.00000000    0.01250000    0.00000000    0.00000000    0.00226494    0.00000000
    0.01250000    0.01250000   -0.00000003    0.00000007   -0.00002404    0.00000008
    0.02500000    0.01250000   -0.00002615    0.00000899   -0.00342619    0.00002765
    0.03750000    0.01250000   -0.00007832    0.00001883   -0.00794429    0.00008056
    0.05000000    0.01250000   -0.00015513    0.00002615   -0.01174207    0.00015732
    0.06250000    0.01250000   -0.00025002    0.00003119   -0.01430224    0.00025196
    0.07500000    0.01250000   -0.00035745    0.00003431   -0.01512670    0.00035909
    0.08750000    0.01250000   -0.00047264    0.00003606   -0.01402459    0.00047401
    0.10000000    0.01250000   -0.00059215    0.00003690   -0.01089948    0.00059330
    0.11250000    0.01250000   -0.00071362    0.00003715   -0.00573446    0.00071458
    0.12500000    0.01250000   -0.00083553    0.00003707    0.00145689    0.00083635
    0.13750000    0.01250000   -0.00095697    0.00003679    0.01064960    0.00095767
    0.15000000    0.01250000   -0.00107738    0.00003641    0.02181671    0.00107799
    0.16250000    0.01250000   -0.00119643    0.00003596    0.03493417    0.00119697
    0.17500000    0.01250000   -0.00131390    0.00003546    0.04998386    0.00131437
    0.18750000    0.01250000   -0.00142961    0.00003493    0.06695110    0.00143004
    0.20000000    0.01250000   -0.00154344    0.00003437    0.08582341    0.00154382
    0.21250000    0.01250000   -0.00165522    0.00003376    0.10659037    0.00165556
    0.22500000    0.01250000   -0.00176482    0.00003312    0.12924127    0.00176513
    0.23750000    0.01250000   -0.00187209    0.00003243    0.15376404    0.00187237
    0.25000000    0.01250000   -0.00197688    0.00003169    0.18014632    0.00197714
    0.26250000    0.01250000   -0.00207904    0.00003091    0.20837448    0.00207927
    0.27500000    0.01250000   -0.00217841    0.00003008    0.23843282    0.00217862
    0.28750000    0.01250000   -0.00227483    0.00002921    0.27030411    0.00227502
    0.30000000    0.01250000   -0.00236814    0.00002828    0.30396820    0.00236830
    0.31250000    0.01250000   -0.00245817    0.00002730    0.33939998    0.00245832
    0.32500000    0.01250000   -0.00254476    0.00002628    0.37657008    0.00254490
    0.33750000    0.01250000   -0.00262776    0.00002519    0.41544727    0.00262788
    0.35000000    0.01250000   -0.00270699    0.00002406    0.45599948    0.00270710
    0.36250000    0.01250000   -0.00278230    0.00002288    0.49819161    0.00278239
    0.37500000    0.01250000   -0.00285350    0.00002164    0.54198162    0.00285359
    0.38750000    0.01250000   -0.00292045    0.00002035    0.58732039    0.00292052
    0.40000000    0.01250000   -0.00298298    0.00001901    0.63415550    0.00298304
    0.41250000    0.01250000   -0.00304093    0.00001762    0.68243201    0.00304098
    0.42500000    0.01250000   -0.00309413    0.00001617    0.73209065    0.00309418
    0.43750000    0.01250000   -0.00314243    0.00001467    0.78306645    0.00314247
    0.45000000    0.01250000   -0.00318567    0.00001312    0.83528583    0.00318570
    0.46250000    0.01250000   -0.00322371    0.00001152    0.88866945    0.00322373
    0.47500000    0.01250000   -0.00325638    0.00000987    0.94313872    0.00325639
    0.48750000    0.01250000   -0.00328354    0.00000817    0.99860699    0.00328355
    0.50000000    0.01250000   -0.00330505    0.00000643    1.05497559    0.00330506
    0.51250000    0.01250000   -0.00332079    0.00000464    1.11214711    0.00332079
    0.52500000    0.01250000   -0.00333062    0.00000280    1.17001792    0.00333062
    0.53750000    0.01250000   -0.00333442    0.00000093    1.22847262    0.00333442
    0.55000000    0.01250000   -0.00333207   -0.00000098    1.28739734    0.00333207
    0.56250000    0.01250000   -0.00332349   -0.00000293    1.34666956    0.00332349
    0.57500000    0.01250000   -0.00330857   -0.00000491    1.40615967    0.00330857
    0.58750000    0.01250000   -0.00328723   -0.00000692    1.46573721    0.00328724
    0.60000000    0.01250000   -0.00325942   -0.00000895    1.52526181    0.00325943
    0.61250000    0.01250000   -0.00322507   -0.00001100    1.58459234    0.00322508
    0.62500000    0.01250000   -0.00318414   -0.00001307    1.64358116    0.00318416
    0.63750000    0.01250000   -0.00313661   -0.00001514    1.70207740    0.00313664
    0.65000000    0.01250000   -0.00308247   -0.00001722    1.75992804    0.00308251
    0.66250000    0.01250000   -0.00302172   -0.00001930    1.81697463    0.00302179
    0.67500000    0.01250000   -0.00295441   -0.00002137    1.87305965    0.00295449
    0.68750000    0.01250000   -0.00288057   -0.00002343    1.92802067    0.00288066
    0.70000000    0.01250000   -0.00280026   -0.00002547    1.98169728    0.00280038
    0.71250000    0.01250000   -0.00271359   -0.00002747    2.03392589    0.00271373
    0.72500000    0.01250000   -0.00262065   -0.00002945    2.08454587    0.00262081
    0.73750000    0.01250000   -0.00252157   -0.00003138    2.13339598    0.00252176
    0.75000000    0.01250000   -0.00241650   -0.00003326    2.18031830    0.00241673
    0.76250000    0.01250000   -0.00230562   -0.00003508    2.22515652    0.00230588
    0.77500000    0.01250000   -0.00218911   -0.00003685    2.26775863    0.00218942
    0.78750000    0.01250000   -0.00206720   -0.00003854    2.30797614    0.00206756
    0.80000000    0.01250000   -0.00194011   -0.00004016    2.34566553    0.00194052
    0.81250000    0.01250000   -0.00180809   -0.00004170    2.38068804    0.00180857
    0.82500000    0.01250000   -0.00167143   -0.00004315    2.41291089    0.00167199
    0.83750000    0.01250000   -0.00153045   -0.00004449    2.44220654    0.00153109
    0.85000000    0.01250000   -0.00138550   -0.00004572    2.46845370    0.00138626
    0.86250000    0.01250000   -0.00123707   -0.00004679    2.49153692    0.00123796
    0.87500000    0.01250000   -0.00108579   -0.00004763    2.51134932    0.00108683
    0.88750000    0.01250000   -0.00093259   -0.00004814    2.52779504    0.00093383
    0.90000000    0.01250000   -0.00077886   -0.00004813    2.54079852    0.00078034
    0.91250000    0.01250000   -0.00062668   -0.00004732    2.55031941    0.00062846
    0.92500000    0.01250000   -0.00047912   -0.00004532    2.55637694    0.00048126
    0.93750000    0.01250000   -0.00034050   -0.00004163    2.55910502    0.00034303
    0.95000000    0.01250000   -0.00021668   -0.00003559    2.55876929    0.00021958
    0.96250000    0.01250000   -0.00011444   -0.00002671    2.55602638    0.00011751
    0.97500000    0.01250000   -0.00004230   -0.00001445    2.55151091    0.00004470
    0.98750000    0.01250000   -0.00000260   -0.00000259    2.54769183    0.00000367
    1.00000000    0.01250000    0.00000000    0.00000000    2.54403719    0.00000000
    0.00000000    0.02500000    0.00000000    0.00000000    0.00901180    0.00000000
    0.01250000    0.02500000   -0.00000903    0.00002620    0.00337795    0.00002771
    0.02500000    0.02500000   -0.00007245    0.00007210   -0.00002725    0.00010221
    0.03750000    0.02500000   -0.00017704    0.00011925   -0.00445450    0.00021346
    0.05000000    0.02500000   -0.00032108    0.00015739   -0.00782223    0.00035758
    0.06250000    0.02500000   -0.00049434    0.00018509   -0.00998040    0.00052786
    0.07500000    0.02500000   -0.00068842    0.00020334   -0.01046305    0.00071782
    0.08750000    0.02500000   -0.00089573    0.00021423   -0.00911540    0.00092100
    0.10000000    0.02500000   -0.00111068    0.00021988   -0.00583365    0.00113223
    0.11250000    0.02500000   -0.00132926    0.00022204   -0.00058605    0.00134768
    0.12500000    0.02500000   -0.00154884    0.00022200    0.00663144    0.00156467
    0.13750000    0.02500000   -0.00176773    0.00022063    0.01580812    0.00178145
    0.15000000    0.02500000   -0.00198487    0.00021846    0.02692936    0.00199686
    0.16250000    0.02500000   -0.00219959    0.00021577    0.03997991    0.00221015
    0.17500000    0.02500000   -0.00241141    0.00021272    0.05494655    0.00242078
    0.18750000    0.02500000   -0.00261999    0.00020939    0.07181822    0.00262835
    0.20000000    0.02500000   -0.00282503    0.00020578    0.09058465    0.00283251
    0.21250000    0.02500000   -0.00302623    0.00020192    0.11123602    0.00303295
    0.22500000    0.02500000   -0.00322332    0.00019779    0.13376254    0.00322938
    0.23750000    0.02500000   -0.00341602    0.00019338    0.15815324    0.00342149
    0.25000000    0.02500000   -0.00360406    0.00018870    0.18439594    0.00360899
    0.26250000    0.02500000   -0.00378714    0.00018373    0.21247741    0.00379160
    0.27500000    0.02500000   -0.00396499    0.00017848    0.24238255    0.00396901
    0.28750000    0.02500000   -0.00413731    0.00017293    0.27409390    0.00414093
    0.30000000    0.02500000   -0.00430382    0.00016709    0.30759085    0.00430706
    0.31250000    0.02500000   -0.00446422    0.00016095    0.34284831    0.00446712
    0.32500000    0.02500000   -0.00461824    0.00015451    0.37983736    0.00462082
    0.33750000    0.02500000   -0.00476557    0.00014777    0.41852811    0.00476786
    0.35000000    0.02500000   -0.00490594    0.00014074    0.45888973    0.00490796
    0.36250000    0.02500000   -0.00503905    0.00013340    0.50088628    0.00504081
    0.37500000    0.02500000   -0.00516461    0.00012577    0.54447418    0.00516614
    0.38750000    0.02500000   -0.00528235    0.00011784    0.58960491    0.00528366
    0.40000000    0.02500000   -0.00539199    0.00010961    0.63622763    0.00539310
    0.41250000    0.02500000   -0.00549325    0.00010109    0.68428798    0.00549418
    0.42500000    0.02500000   -0.00558585    0.00009229    0.73372690    0.00558661
    0.43750000    0.02500000   -0.00566953    0.00008320    0.78447874    0.00567014
    0.45000000    0.02500000   -0.00574403    0.00007382    0.83646947    0.00574451
    0.46250000    0.02500000   -0.00580910    0.00006417    0.88962234    0.00580945
    0.47500000    0.02500000   -0.00586448    0.00005426    0.94385911    0.00586473
    0.48750000    0.02500000   -0.00590993    0.00004409    0.99909042    0.00591010
    0.50000000    0.02500000   -0.00594524    0.00003367    1.05522024    0.00594533
    0.51250000    0.02500000   -0.00597018    0.00002301    1.11215271    0.00597022
    0.52500000    0.02500000   -0.00598454    0.00001213    1.16978163    0.00598455
    0.53750000    0.02500000   -0.00598814    0.00000104    1.22799455    0.00598814
    0.55000000    0.02500000   -0.00598079   -0.00001024    1.28667742    0.00598080
    0.56250000    0.02500000   -0.00596235   -0.00002170    1.34570641    0.00596239
    0.57500000    0.02500000   -0.00593267   -0.00003331    1.40495482    0.00593276
    0.58750000    0.02500000   -0.00589163   -0.00004505    1.46429037    0.00589180
    0.60000000    0.02500000   -0.00583914   -0.00005691    1.52357446    0.00583942
    0.61250000    0.02500000   -0.00577511   -0.00006884    1.58266641    0.00577552
    0.62500000    0.02500000   -0.00569951   -0.00008084    1.64141830    0.00570008
    0.63750000    0.02500000   -0.00561230   -0.00009286    1.69968093    0.00561307
    0.65000000    0.02500000   -0.00551349   -0.00010488    1.75730002    0.00551449
    0.66250000    0.02500000   -0.00540312   -0.00011686    1.81411941    0.00540438
    0.67500000    0.02500000   -0.00528125   -0.00012878    1.86998042    0.00528282
    0.68750000    0.02500000   -0.00514797   -0.00014059    1.92472233    0.00514989
    0.70000000    0.02500000   -0.00500343   -0.00015227    1.97818444    0.00500574
    0.71250000    0.02500000   -0.00484778   -0.00016376    2.03020431    0.00485054
    0.72500000    0.02500000   -0.00468123   -0.00017503    2.08062141    0.00468450
    0.73750000    0.02500000   -0.00450401   -0.00018606    2.12927491    0.00450785
    0.75000000    0.02500000   -0.00431639   -0.00019678    2.17600752    0.00432088
    0.76250000    0.02500000   -0.00411870   -0.00020718    2.22066311    0.00412390
    0.77500000    0.02500000   -0.00391126   -0.00021721    2.26309051    0.00391728
    0.78750000    0.02500000   -0.00369446   -0.00022683    2.30314147    0.00370141
    0.80000000    0.02500000   -0.00346871   -0.00023600    2.34067391    0.00347673
    0.81250000    0.02500000   -0.00323448   -0.00024469    2.37554990    0.00324372
    0.82500000    0.02500000   -0.00299226   -0.00025284    2.40763868    0.00300292
    0.83750000    0.02500000   -0.00274263   -0.00026036    2.43681502    0.00275496
    0.85000000    0.02500000   -0.00248628   -0.00026712    2.46296196    0.00250058
    0.86250000    0.02500000   -0.00222406   -0.00027287    2.48597001    0.00224074
    0.87500000    0.02500000   -0.00195716   -0.00027720    2.50574145    0.00197669
    0.88750000    0.02500000   -0.00168723   -0.00027943    2.52219330    0.00171021
    0.90000000    0.02500000   -0.00141671   -0.00027853    2.53526656    0.00144383
    0.91250000    0.02500000   -0.00114918   -0.00027299    2.54494053    0.00118116
    0.92500000    0.02500000   -0.00088973   -0.00026078    2.55125056    0.00092716
    0.93750000    0.02500000   -0.00064534   -0.00023949    2.55434130    0.00068835
    0.95000000    0.02500000   -0.00042523   -0.00020661    2.55443804    0.00047276
    0.96250000    0.02500000   -0.00023966   -0.00016062    2.55216656    0.00028851
    0.97500000    0.02500000   -0.00010174   -0.00010231    2.54771178    0.00014428
    0.98750000    0.02500000   -0.00001428   -0.00004222    2.54388191    0.00004457
    1.00000000    0.02500000    0.00000000    0.00000000    2.53583581    0.00000000
    0.00000000    0.03750000    0.00000000    0.00000000    0.01742254    0.00000000
    0.01250000    0.03750000   -0.00001907    0.00007882    0.00788536    0.00008109
    0.02500000    0.03750000   -0.00012073    0.00017698    0.00437117    0.00021424
    0.03750000    0.03750000   -0.00027338    0.00027119   -0.00007310    0.00038508
    0.05000000    0.03750000   -0.00047468    0.00034755   -0.00298912    0.00058831
    0.06250000    0.03750000   -0.00071154    0.00040365   -0.00468295    0.00081806
    0.07500000    0.03750000   -0.00097410    0.00044129   -0.00475122    0.00106939
    0.08750000    0.03750000   -0.00125329    0.00046426   -0.00309700    0.00133651
    0.10000000    0.03750000   -0.00154229    0.00047652    0.00038517    0.00161423
    0.11250000    0.03750000   -0.00183613    0.00048148    0.00574007    0.00189821
    0.12500000    0.03750000   -0.00213141    0.00048170    0.01299165    0.00218517
    0.13750000    0.03750000   -0.00242589    0.00047895    0.02214744    0.00247272
    0.15000000    0.03750000   -0.00271810    0.00047433    0.03320725    0.00275918
    0.16250000    0.03750000   -0.00300706    0.00046850    0.04616648    0.00304334
    0.17500000    0.03750000   -0.00329210    0.00046179    0.06101949    0.00332433
    0.18750000    0.03750000   -0.00357267    0.00045437    0.07775992    0.00360144
    0.20000000    0.03750000   -0.00384832    0.00044633    0.09638050    0.00387412
    0.21250000    0.03750000   -0.00411866    0.00043768    0.11687344    0.00414185
    0.22500000    0.03750000   -0.00438327    0.00042843    0.13923006    0.00440416
    0.23750000    0.03750000   -0.00464178    0.00041857    0.16344021    0.00466062
    0.25000000    0.03750000   -0.00489380    0.00040809    0.18949257    0.00491078
    0.26250000    0.03750000   -0.00513893    0.00039698    0.21737454    0.00515424
    0.27500000    0.03750000   -0.00537679    0.00038525    0.24707157    0.00539058
    0.28750000    0.03750000   -0.00560699    0.00037288    0.27856650    0.00561938
    0.30000000    0.03750000   -0.00582915    0.00035988    0.31183852    0.00584025
    0.31250000    0.03750000   -0.00604288    0.00034624    0.34686259    0.00605279
    0.32500000    0.03750000   -0.00624780    0.00033197    0.38361106    0.00625661
    0.33750000    0.03750000   -0.00644353    0.00031705    0.42205564    0.00645132
    0.35000000    0.03750000   -0.00662968    0.00030150    0.46216565    0.00663653
    0.36250000    0.03750000   -0.00680588    0.00028532    0.50390408    0.00681186
    0.37500000    0.03750000   -0.00697177    0.00026851    0.54722725    0.00697693
    0.38750000    0.03750000   -0.00712697    0.00025107    0.59208813    0.00713139
    0.40000000    0.03750000   -0.00727112    0.00023302    0.63843723    0.00727486
    0.41250000    0.03750000   -0.00740388    0.00021436    0.68622060    0.00740698
    0.42500000    0.03750000   -0.00752489    0.00019510    0.73537872    0.00752742
    0.43750000    0.03750000   -0.00763381    0.00017524    0.78584543    0.00763582
    0.45000000    0.03750000   -0.00773032    0.00015482    0.83754867    0.00773187
    0.46250000    0.03750000   -0.00781409    0.00013383    0.89041368    0.00781523
    0.47500000    0.03750000   -0.00788481    0.00011230    0.94436028    0.00788561
    0.48750000    0.03750000   -0.00794219    0.00009024    0.99929949    0.00794271
    0.50000000    0.03750000   -0.00798595    0.00006768    1.05513834    0.00798624
    0.51250000    0.03750000   -0.00801582    0.00004465    1.11177929    0.00801594
    0.52500000    0.03750000   -0.00803154    0.00002117    1.16911675    0.00803157
    0.53750000    0.03750000   -0.00803290   -0.00000272    1.22704054    0.00803290
    0.55000000    0.03750000   -0.00801968   -0.00002699    1.28543507    0.00801973
    0.56250000    0.03750000   -0.00799170   -0.00005160    1.34417834    0.00799187
    0.57500000    0.03750000   -0.00794879   -0.00007650    1.40314381    0.00794916
    0.58750000    0.03750000   -0.00789083   -0.00010165    1.46219909    0.00789148
    0.60000000    0.03750000   -0.00781769   -0.00012700    1.52120718    0.00781872
    0.61250000    0.03750000   -0.00772932   -0.00015250    1.58002644    0.00773082
    0.62500000    0.03750000   -0.00762566   -0.00017810    1.63851075    0.00762773
    0.63750000    0.03750000   -0.00750670   -0.00020372    1.69651047    0.00750946
    0.65000000    0.03750000   -0.00737247   -0.00022930    1.75387224    0.00737604
    0.66250000    0.03750000   -0.00722304   -0.00025478    1.81044023    0.00722753
    0.67500000    0.03750000   -0.00705851   -0.00028010    1.86605594    0.00706407
    0.68750000    0.03750000   -0.00687903   -0.00030516    1.92055950    0.00688580
    0.70000000    0.03750000   -0.00668479   -0.00032990    1.97378981    0.00669292
    0.71250000    0.03750000   -0.00647601   -0.00035425    2.02558553    0.00648569
    0.72500000    0.03750000   -0.00625298   -0.00037811    2.07578570    0.00626440
    0.73750000    0.03750000   -0.00601601   -0.00040142    2.12423054    0.00602939
    0.75000000    0.03750000   -0.00576549   -0.00042408    2.17076231    0.00578107
    0.76250000    0.03750000   -0.00550182   -0.00044603    2.21522601    0.00551987
    0.77500000    0.03750000   -0.00522546   -0.00046719    2.25747031    0.00524630
    0.78750000    0.03750000   -0.00493692   -0.00048746    2.29734814    0.00496093
    0.80000000    0.03750000   -0.00463676   -0.00050678    2.33471772    0.00466437
    0.81250000    0.03750000   -0.00432559   -0.00052504    2.36944297    0.00435734
    0.82500000    0.03750000   -0.00400410   -0.00054212    2.40139471    0.00404063
    0.83750000    0.03750000   -0.00367306   -0.00055782    2.43045137    0.00371518
    0.85000000    0.03750000   -0.00333341   -0.00057183    2.45650068    0.00338211
    0.86250000    0.03750000   -0.00298633   -0.00058361    2.47944147    0.00304283
    0.87500000    0.03750000   -0.00263340   -0.00059230    2.49918724    0.00269918
    0.88750000    0.03750000   -0.00227681   -0.00059648    2.51567126    0.00235365
    0.90000000    0.03750000   -0.00191974   -0.00059405    2.52885418    0.00200955
    0.91250000    0.03750000   -0.00156669   -0.00058201    2.53873778    0.00167130
    0.92500000    0.03750000   -0.00122398   -0.00055648    2.54537316    0.00134454
    0.93750000    0.03750000   -0.00090001   -0.00051290    2.54890920    0.00103590
    0.95000000    0.03750000   -0.00060579   -0.00044676    2.54951042    0.00075271
    0.96250000    0.03750000   -0.00035328   -0.00035533    2.54774111    0.00050106
    0.97500000    0.03750000   -0.00015892   -0.00023986    2.54325677    0.00028773
    0.98750000    0.03750000   -0.00002623   -0.00011371    2.53933026    0.00011669
    1.00000000    0.03750000    0.00000000    0.00000000    2.52664194    0.00000000
    0.00000000    0.05000000    0.00000000    0.00000000    0.02470723    0.00000000
    0.01250000    0.05000000   -0.00002678    0.00015693    0.01164635    0.00015920
    0.02500000    0.05000000   -0.00016086    0.00032264    0.00767950    0.00036051
    0.03750000    0.05000000   -0.00035366    0.00047322    0.00274849    0.00059077
    0.05000000    0.05000000   -0.00060165    0.00059417   -0.00017940    0.00084559
    0.06250000    0.05000000   -0.00088898    0.00068324   -0.00178243    0.00112121
    0.07500000    0.05000000   -0.00120473    0.00074355   -0.00170208    0.00141571
    0.08750000    0.05000000   -0.00153893    0.00078080    0.00008736    0.00172567
    0.10000000    0.05000000   -0.00188409    0.00080101    0.00366914    0.00204729
    0.11250000    0.05000000   -0.00223470    0.00080941    0.00908053    0.00237677
    0.12500000    0.05000000   -0.00258693    0.00081000    0.01634723    0.00271078
    0.13750000    0.05000000   -0.00293819    0.00080556    0.02548185    0.00304662
    0.15000000    0.05000000   -0.00328675    0.00079788    0.03649153    0.00338221
    0.16250000    0.05000000   -0.00363142    0.00078804    0.04937765    0.00371594
    0.17500000    0.05000000   -0.00397134    0.00077662    0.06413867    0.00404657
    0.18750000    0.05000000   -0.00430585    0.00076394    0.08077205    0.00437309
    0.20000000    0.05000000   -0.00463436    0.00075013    0.09927311    0.00469467
    0.21250000    0.05000000   -0.00495637    0.00073525    0.11963562    0.00501061
    0.22500000    0.05000000   -0.00527138    0.00071933    0.14185282    0.00532023
    0.23750000    0.05000000   -0.00557892    0.00070236    0.16591616    0.00562296
    0.25000000    0.05000000   -0.00587852    0.00068433    0.19181512    0.00591822
    0.26250000    0.05000000   -0.00616971    0.00066525    0.21953807    0.00620547
    0.27500000    0.05000000   -0.00645202    0.00064511    0.24907120    0.00648419
    0.28750000    0.05000000   -0.00672499    0.00062390    0.28039729    0.00675387
    0.30000000    0.05000000   -0.00698816    0.00060163    0.31349572    0.00701401
    0.31250000    0.05000000   -0.00724108    0.00057830    0.34834261    0.00726414
    0.32500000    0.05000000   -0.00748330    0.00055390    0.38491204    0.00750377