 TITLE = "NAVIER STOKES 2D - FD"
 VARIABLES = "X" "Y" "U" "V" "P" "U_MAG"
  ZONE F=POINT, I=          81 , J=           81
    0.00000000    0.00000000    0.00000000    0.00000000    0.00000000    0.00000000
    0.01250000    0.00000000    0.00000000    0.00000000   -0.00222891    0.00000000
    0.02500000    0.00000000    0.00000000    0.00000000   -0.01089300    0.00000000
    0.03750000    0.00000000    0.00000000    0.00000000   -0.02257317    0.00000000
    0.05000000    0.00000000    0.00000000    0.00000000   -0.03361626    0.00000000
    0.06250000    0.00000000    0.00000000    0.00000000   -0.04244507    0.00000000
    0.07500000    0.00000000    0.00000000    0.00000000   -0.04822046    0.00000000
    0.08750000    0.00000000    0.00000000    0.00000000   -0.05062177    0.00000000
    0.10000000    0.00000000    0.00000000    0.00000000   -0.04955923    0.00000000
    0.11250000    0.00000000    0.00000000    0.00000000   -0.04507753    0.00000000
    0.12500000    0.00000000    0.00000000    0.00000000   -0.03728396    0.00000000
    0.13750000    0.00000000    0.00000000    0.00000000   -0.02631183    0.00000000
    0.15000000    0.00000000    0.00000000    0.00000000   -0.01229736    0.00000000
    0.16250000    0.00000000    0.00000000    0.00000000    0.00463259    0.00000000
    0.17500000    0.00000000    0.00000000    0.00000000    0.02436671    0.00000000
    0.18750000    0.00000000    0.00000000    0.00000000    0.04681160    0.00000000
    0.20000000    0.00000000    0.00000000    0.00000000    0.07189149    0.00000000
    0.21250000    0.00000000    0.00000000    0.00000000    0.09954663    0.00000000
    0.22500000    0.00000000    0.00000000    0.00000000    0.12973100    0.00000000
    0.23750000    0.00000000    0.00000000    0.00000000    0.16240948    0.00000000
    0.25000000    0.00000000    0.00000000    0.00000000    0.19755502    0.00000000
    0.26250000    0.00000000    0.00000000    0.00000000    0.23514592    0.00000000
    0.27500000    0.00000000    0.00000000    0.00000000    0.27516310    0.00000000
    0.28750000    0.00000000    0.00000000    0.00000000    0.31758775    0.00000000
    0.30000000    0.00000000    0.00000000    0.00000000    0.36239898    0.00000000
    0.31250000    0.00000000    0.00000000    0.00000000    0.40957178    0.00000000
    0.32500000    0.00000000    0.00000000    0.00000000    0.45907506    0.00000000
    0.33750000    0.00000000    0.00000000    0.00000000    0.51086982    0.00000000
    0.35000000    0.00000000    0.00000000    0.00000000    0.56490740    0.00000000
    0.36250000    0.00000000    0.00000000    0.00000000    0.62112776    0.00000000
    0.37500000    0.00000000    0.00000000    0.00000000    0.67945786    0.00000000
    0.38750000    0.00000000    0.00000000    0.00000000    0.73981020    0.00000000
    0.40000000    0.00000000    0.00000000    0.00000000    0.80208141    0.00000000
    0.41250000    0.00000000    0.00000000    0.00000000    0.86615098    0.00000000
    0.42500000    0.00000000    0.00000000    0.00000000    0.93188005    0.00000000
    0.43750000    0.00000000    0.00000000    0.00000000    0.99911021    0.00000000
    0.45000000    0.00000000    0.00000000    0.00000000    1.06766278    0.00000000
    0.46250000    0.00000000    0.00000000    0.00000000    1.13733839    0.00000000
    0.47500000    0.00000000    0.00000000    0.00000000    1.20791685    0.00000000
    0.48750000    0.00000000    0.00000000    0.00000000    1.27915717    0.00000000
    0.50000000    0.00000000    0.00000000    0.00000000    1.35079816    0.00000000
    0.51250000    0.00000000    0.00000000    0.00000000    1.42255956    0.00000000
    0.52500000    0.00000000    0.00000000    0.00000000    1.49414401    0.00000000
    0.53750000    0.00000000    0.00000000    0.00000000    1.56523873    0.00000000
    0.55000000    0.00000000    0.00000000    0.00000000    1.63551803    0.00000000
    0.56250000    0.00000000    0.00000000    0.00000000    1.70464691    0.00000000
    0.57500000    0.00000000    0.00000000    0.00000000    1.77228445    0.00000000
    0.58750000    0.00000000    0.00000000    0.00000000    1.83808773    0.00000000
    0.60000000    0.00000000    0.00000000    0.00000000    1.90171654    0.00000000
    0.61250000    0.00000000    0.00000000    0.00000000    1.96283855    0.00000000
    0.62500000    0.00000000    0.00000000    0.00000000    2.02113342    0.00000000
    0.63750000    0.00000000    0.00000000    0.00000000    2.07629710    0.00000000
    0.65000000    0.00000000    0.00000000    0.00000000    2.12804824    0.00000000
    0.66250000    0.00000000    0.00000000    0.00000000    2.17613271    0.00000000
    0.67500000    0.00000000    0.00000000    0.00000000    2.22032637    0.00000000
    0.68750000    0.00000000    0.00000000    0.00000000    2.26044039    0.00000000
    0.70000000    0.00000000    0.00000000    0.00000000    2.29632434    0.00000000
    0.71250000    0.00000000    0.00000000    0.00000000    2.32786796    0.00000000
    0.72500000    0.00000000    0.00000000    0.00000000    2.35500447    0.00000000
    0.73750000    0.00000000    0.00000000    0.00000000    2.37771053    0.00000000
    0.75000000    0.00000000    0.00000000    0.00000000    2.39600743    0.00000000
    0.76250000    0.00000000    0.00000000    0.00000000    2.40996095    0.00000000
    0.77500000    0.00000000    0.00000000    0.00000000    2.41967994    0.00000000
    0.78750000    0.00000000    0.00000000    0.00000000    2.42531588    0.00000000
    0.80000000    0.00000000    0.00000000    0.00000000    2.42706041    0.00000000
    0.81250000    0.00000000    0.00000000    0.00000000    2.42514422    0.00000000
    0.82500000    0.00000000    0.00000000    0.00000000    2.41983471    0.00000000
    0.83750000    0.00000000    0.00000000    0.00000000    2.41143493    0.00000000
    0.85000000    0.00000000    0.00000000    0.00000000    2.40028245    0.00000000
    0.86250000    0.00000000    0.00000000    0.00000000    2.38674974    0.00000000
    0.87500000    0.00000000    0.00000000    0.00000000    2.37124584    0.00000000
    0.88750000    0.00000000    0.00000000    0.00000000    2.35422046    0.00000000
    0.90000000    0.00000000    0.00000000    0.00000000    2.33617139    0.00000000
    0.91250000    0.00000000    0.00000000    0.00000000    2.31765691    0.00000000
    0.92500000    0.00000000    0.00000000    0.00000000    2.29931548    0.00000000
    0.93750000    0.00000000    0.00000000    0.00000000    2.28189587    0.00000000
    0.95000000    0.00000000    0.00000000    0.00000000    2.26630570    0.00000000
    0.96250000    0.00000000    0.00000000    0.00000000    2.25366691    0.00000000
    0.97500000    0.00000000    0.00000000    0.00000000    2.24540199    0.00000000
    0.98750000    0.00000000    0.00000000    0.00000000    2.24269763    0.00000000
    1.00000000    0.00000000    0.00000000    0.00000000    2.24579106    0.00000000
    0.00000000    0.01250000    0.00000000    0.00000000    0.00221354    0.00000000
    0.01250000    0.01250000    0.00000202   -0.00000195   -0.00003409    0.00000281
    0.02500000    0.01250000   -0.00002539    0.00000902   -0.00463975    0.00002694
    0.03750000    0.01250000   -0.00008780    0.00002247   -0.01107682    0.00009063
    0.05000000    0.01250000   -0.00018616    0.00003368   -0.01701395    0.00018918
    0.06250000    0.01250000   -0.00031454    0.00004254   -0.02160473    0.00031740
    0.07500000    0.01250000   -0.00046717    0.00004917   -0.02405658    0.00046976
    0.08750000    0.01250000   -0.00063828    0.00005398   -0.02397744    0.00064056
    0.10000000    0.01250000   -0.00082301    0.00005733   -0.02113323    0.00082501
    0.11250000    0.01250000   -0.00101737    0.00005955   -0.01542806    0.00101911
    0.12500000    0.01250000   -0.00121822    0.00006094   -0.00684235    0.00121974
    0.13750000    0.01250000   -0.00142313    0.00006169    0.00459572    0.00142447
    0.15000000    0.01250000   -0.00163029    0.00006200    0.01883377    0.00163147
    0.16250000    0.01250000   -0.00183833    0.00006198    0.03580940    0.00183938
    0.17500000    0.01250000   -0.00204626    0.00006173    0.05545927    0.00204719
    0.18750000    0.01250000   -0.00225332    0.00006132    0.07772421    0.00225415
    0.20000000    0.01250000   -0.00245895    0.00006078    0.10255179    0.00245970
    0.21250000    0.01250000   -0.00266272    0.00006015    0.12989705    0.00266340
    0.22500000    0.01250000   -0.00286427    0.00005943    0.15972207    0.00286489
    0.23750000    0.01250000   -0.00306326    0.00005863    0.19199494    0.00306382
    0.25000000    0.01250000   -0.00325937    0.00005775    0.22668815    0.00325988
    0.26250000    0.01250000   -0.00345228    0.00005678    0.26377689    0.00345275
    0.27500000    0.01250000   -0.00364163    0.00005570    0.30323721    0.00364205
    0.28750000    0.01250000   -0.00382702    0.00005451    0.34504420    0.00382741
    0.30000000    0.01250000   -0.00400802    0.00005318    0.38917016    0.00400838
    0.31250000    0.01250000   -0.00418416    0.00005170    0.43558288    0.00418448
    0.32500000    0.01250000   -0.00435491    0.00005006    0.48424395    0.00435520
    0.33750000    0.01250000   -0.00451970    0.00004824    0.53510712    0.00451996
    0.35000000    0.01250000   -0.00467791    0.00004623    0.58811673    0.00467813
    0.36250000    0.01250000   -0.00482887    0.00004400    0.64320623    0.00482907
    0.37500000    0.01250000   -0.00497188    0.00004156    0.70029667    0.00497205
    0.38750000    0.01250000   -0.00510621    0.00003889    0.75929541    0.00510636
    0.40000000    0.01250000   -0.00523109    0.00003597    0.82009490    0.00523121
    0.41250000    0.01250000   -0.00534572    0.00003280    0.88257147    0.00534582
    0.42500000    0.01250000   -0.00544930    0.00002938    0.94658426    0.00544938
    0.43750000    0.01250000   -0.00554102    0.00002571    1.01197440    0.00554108
    0.45000000    0.01250000   -0.00562005    0.00002178    1.07856440    0.00562009
    0.46250000    0.01250000   -0.00568561    0.00001760    1.14615789    0.00568563
    0.47500000    0.01250000   -0.00573692    0.00001319    1.21453952    0.00573693
    0.48750000    0.01250000   -0.00577324    0.00000855    1.28347523    0.00577325
    0.50000000    0.01250000   -0.00579392    0.00000370    1.35271287    0.00579392
    0.51250000    0.01250000   -0.00579832   -0.00000133    1.42198340    0.00579832
    0.52500000    0.01250000   -0.00578592   -0.00000651    1.49100347    0.00578593
    0.53750000    0.01250000   -0.00575631   -0.00001181    1.55947636    0.00575632
    0.55000000    0.01250000   -0.00570915   -0.00001720    1.62709388    0.00570917
    0.56250000    0.01250000   -0.00564425   -0.00002263    1.69354057    0.00564430
    0.57500000    0.01250000   -0.00556157   -0.00002806    1.75849666    0.00556164
    0.58750000    0.01250000   -0.00546116   -0.00003345    1.82164183    0.00546127
    0.60000000    0.01250000   -0.00534329   -0.00003873    1.88265957    0.00534343
    0.61250000    0.01250000   -0.00520832   -0.00004387    1.94124151    0.00520851
    0.62500000    0.01250000   -0.00505682   -0.00004881    1.99709126    0.00505705
    0.63750000    0.01250000   -0.00488948   -0.00005350    2.04992922    0.00488978
    0.65000000    0.01250000   -0.00470719   -0.00005789    2.09949786    0.00470754
    0.66250000    0.01250000   -0.00451094   -0.00006193    2.14556504    0.00451136
    0.67500000    0.01250000   -0.00430189   -0.00006558    2.18792787    0.00430239
    0.68750000    0.01250000   -0.00408135   -0.00006880    2.22641738    0.00408193
    0.70000000    0.01250000   -0.00385071   -0.00007156    2.26090050    0.00385137
    0.71250000    0.01250000   -0.00361150   -0.00007381    2.29128317    0.00361225
    0.72500000    0.01250000   -0.00336534   -0.00007554    2.31751248    0.00336619
    0.73750000    0.01250000   -0.00311394   -0.00007672    2.33957718    0.00311489
    0.75000000    0.01250000   -0.00285908   -0.00007734    2.35750943    0.00286012
    0.76250000    0.01250000   -0.00260260   -0.00007736    2.37138400    0.00260375
    0.77500000    0.01250000   -0.00234641   -0.00007678    2.38131828    0.00234767
    0.78750000    0.01250000   -0.00209247   -0.00007559    2.38747126    0.00209384
    0.80000000    0.01250000   -0.00184279   -0.00007378    2.39004209    0.00184427
    0.81250000    0.01250000   -0.00159943   -0.00007133    2.38926889    0.00160102
    0.82500000    0.01250000   -0.00136449   -0.00006822    2.38542671    0.00136620
    0.83750000    0.01250000   -0.00114015   -0.00006446    2.37882649    0.00114197
    0.85000000    0.01250000   -0.00092861   -0.00006002    2.36981339    0.00093055
    0.86250000    0.01250000   -0.00073214   -0.00005488    2.35876639    0.00073420
    0.87500000    0.01250000   -0.00055304   -0.00004905    2.34609794    0.00055521
    0.88750000    0.01250000   -0.00039359   -0.00004251    2.33225515    0.00039588
    0.90000000    0.01250000   -0.00025604   -0.00003529    2.31772158    0.00025846
    0.91250000    0.01250000   -0.00014250   -0.00002744    2.30302091    0.00014511
    0.92500000    0.01250000   -0.00005473   -0.00001905    2.28872109    0.00005795
    0.93750000    0.01250000    0.00000607   -0.00001034    2.27543781    0.00001199
    0.95000000    0.01250000    0.00003978   -0.00000171    2.26384280    0.00003982
    0.96250000    0.01250000    0.00004801    0.00000609    2.25461575    0.00004839
    0.97500000    0.01250000    0.00003595    0.00001142    2.24859451    0.00003772
    0.98750000    0.01250000    0.00001132    0.00001138    2.24578089    0.00001606
    1.00000000    0.01250000    0.00000000    0.00000000    2.24888444    0.00000000
    0.00000000    0.02500000    0.00000000    0.00000000    0.01101618    0.00000000
    0.01250000    0.02500000   -0.00000913    0.00002549    0.00457474    0.00002708
    0.02500000    0.02500000   -0.00008433    0.00008319   -0.00004960    0.00011846
    0.03750000    0.02500000   -0.00021678    0.00014900   -0.00629020    0.00026305
    0.05000000    0.02500000   -0.00040866    0.00020830   -0.01148472    0.00045869
    0.06250000    0.02500000   -0.00065070    0.00025758   -0.01527520    0.00069982
    0.07500000    0.02500000   -0.00093426    0.00029625   -0.01694205    0.00098011
    0.08750000    0.02500000   -0.00125028    0.00032541   -0.01617491    0.00129193
    0.10000000    0.02500000   -0.00159086    0.00034656   -0.01275861    0.00162817
    0.11250000    0.02500000   -0.00194931    0.00036126   -0.00660106    0.00198250
    0.12500000    0.02500000   -0.00232019    0.00037092    0.00232624    0.00234965
    0.13750000    0.02500000   -0.00269920    0.00037673    0.01400842    0.00272536
    0.15000000    0.02500000   -0.00308300    0.00037962    0.02840779    0.00310629
    0.16250000    0.02500000   -0.00346903    0.00038036    0.04547588    0.00348982
    0.17500000    0.02500000   -0.00385534    0.00037949    0.06516160    0.00387397
    0.18750000    0.02500000   -0.00424044    0.00037743    0.08741599    0.00425720
    0.20000000    0.02500000   -0.00462316    0.00037444    0.11219472    0.00463830
    0.21250000    0.02500000   -0.00500260    0.00037071    0.13945894    0.00501631
    0.22500000    0.02500000   -0.00537796    0.00036634    0.16917519    0.00539042
    0.23750000    0.02500000   -0.00574854    0.00036138    0.20131453    0.00575989
    0.25000000    0.02500000   -0.00611369    0.00035581    0.23585127    0.00612403
    0.26250000    0.02500000   -0.00647271    0.00034961    0.27276146    0.00648215
    0.27500000    0.02500000   -0.00682491    0.00034272    0.31202134    0.00683351
    0.28750000    0.02500000   -0.00716951    0.00033507    0.35360565    0.00717733
    0.30000000    0.02500000   -0.00750568    0.00032659    0.39748598    0.00751278
    0.31250000    0.02500000   -0.00783253    0.00031719    0.44362917    0.00783895
    0.32500000    0.02500000   -0.00814906    0.00030679    0.49199574    0.00815483
    0.33750000    0.02500000   -0.00845421    0.00029530    0.54253833    0.00845937
    0.35000000    0.02500000   -0.00874686    0.00028264    0.59520023    0.00875142
    0.36250000    0.02500000   -0.00902578    0.00026874    0.64991387    0.00902978
    0.37500000    0.02500000   -0.00928970    0.00025352    0.70659952    0.00929316
    0.38750000    0.02500000   -0.00953729    0.00023692    0.76516390    0.00954023
    0.40000000    0.02500000   -0.00976715    0.00021891    0.82549906    0.00976961
    0.41250000    0.02500000   -0.00997788    0.00019943    0.88748119    0.00997988
    0.42500000    0.02500000   -0.01016803    0.00017848    0.95096959    0.01016960
    0.43750000    0.02500000   -0.01033614    0.00015605    1.01580589    0.01033732
    0.45000000    0.02500000   -0.01048079    0.00013215    1.08181352    0.01048162
    0.46250000    0.02500000   -0.01060056    0.00010682    1.14879736    0.01060110
    0.47500000    0.02500000   -0.01069410    0.00008012    1.21654374    0.01069440
    0.48750000    0.02500000   -0.01076013    0.00005214    1.28482067    0.01076026
    0.50000000    0.02500000   -0.01079748    0.00002299    1.35337861    0.01079750
    0.51250000    0.02500000   -0.01080509   -0.00000720    1.42195158    0.01080509
    0.52500000    0.02500000   -0.01078207   -0.00003825    1.49025893    0.01078213
    0.53750000    0.02500000   -0.01072768   -0.00006998    1.55800719    0.01072791
    0.55000000    0.02500000   -0.01064139   -0.00010217    1.62489244    0.01064188
    0.56250000    0.02500000   -0.01052290   -0.00013459    1.69060340    0.01052376
    0.57500000    0.02500000   -0.01037213   -0.00016700    1.75482470    0.01037347
    0.58750000    0.02500000   -0.01018925   -0.00019911    1.81724072    0.01019119
    0.60000000    0.02500000   -0.00997471   -0.00023065    1.87753971    0.00997737
    0.61250000    0.02500000   -0.00972921   -0.00026133    1.93541790    0.00973272
    0.62500000    0.02500000   -0.00945376   -0.00029087    1.99058374    0.00945823
    0.63750000    0.02500000   -0.00914960   -0.00031897    2.04276272    0.00915516
    0.65000000    0.02500000   -0.00881828   -0.00034537    2.09170190    0.00882504
    0.66250000    0.02500000   -0.00846159   -0.00036979    2.13717369    0.00846966
    0.67500000    0.02500000   -0.00808156   -0.00039198    2.17898007    0.00809106
    0.68750000    0.02500000   -0.00768048   -0.00041172    2.21695635    0.00769151
    0.70000000    0.02500000   -0.00726083   -0.00042879    2.25097388    0.00727348
    0.71250000    0.02500000   -0.00682530   -0.00044299    2.28094299    0.00683966
    0.72500000    0.02500000   -0.00637672   -0.00045417    2.30681479    0.00639288
    0.73750000    0.02500000   -0.00591813   -0.00046218    2.32858246    0.00593615
    0.75000000    0.02500000   -0.00545266   -0.00046688    2.34628221    0.00547261
    0.76250000    0.02500000   -0.00498358   -0.00046816    2.35999314    0.00500553
    0.77500000    0.02500000   -0.00451430   -0.00046593    2.36983703    0.00453828
    0.78750000    0.02500000   -0.00404829   -0.00046008    2.37597729    0.00407435
    0.80000000    0.02500000   -0.00358915   -0.00045052    2.37861776    0.00361731
    0.81250000    0.02500000   -0.00314057   -0.00043716    2.37800107    0.00317085
    0.82500000    0.02500000   -0.00270635   -0.00041991    2.37440691    0.00273873
    0.83750000    0.02500000   -0.00229038   -0.00039866    2.36815029    0.00232482
    0.85000000    0.02500000   -0.00189664   -0.00037333    2.35957977    0.00193303
    0.86250000    0.02500000   -0.00152920   -0.00034385    2.34907616    0.00156738
    0.87500000    0.02500000   -0.00119214   -0.00031018    2.33705132    0.00123184
    0.88750000    0.02500000   -0.00088955   -0.00027238    2.32394774    0.00093032
    0.90000000    0.02500000   -0.00062535   -0.00023063    2.31023852    0.00066652
    0.91250000    0.02500000   -0.00040313   -0.00018535    2.29642803    0.00044369
    0.92500000    0.02500000   -0.00022583   -0.00013737    2.28305290    0.00026432
    0.93750000    0.02500000   -0.00009529   -0.00008817    2.27068144    0.00012983
    0.95000000    0.02500000   -0.00001151   -0.00004031    2.25991701    0.00004192
    0.96250000    0.02500000    0.00002832    0.00000185    2.25135210    0.00002838
    0.97500000    0.02500000    0.00003205    0.00003123    2.24572984    0.00004475
    0.98750000    0.02500000    0.00001138    0.00003597    2.24295882    0.00003773
    1.00000000    0.02500000    0.00000000    0.00000000    2.24628309    0.00000000
    0.00000000    0.03750000    0.00000000    0.00000000    0.02306164    0.00000000
    0.01250000    0.03750000   -0.00002326    0.00008930    0.01100715    0.00009228
    0.02500000    0.03750000   -0.00015407    0.00021660    0.00610776    0.00026581
    0.03750000    0.03750000   -0.00035904    0.00035135   -0.00019531    0.00050235
    0.05000000    0.03750000   -0.00064033    0.00047291   -0.00463660    0.00079604
    0.06250000    0.03750000   -0.00098533    0.00057513   -0.00751175    0.00114089
    0.07500000    0.03750000   -0.00138379    0.00065674   -0.00821982    0.00153173
    0.08750000    0.03750000   -0.00182475    0.00071940   -0.00657789    0.00196144
    0.10000000    0.03750000   -0.00229852    0.00076575   -0.00241236    0.00242272
    0.11250000    0.03750000   -0.00279668    0.00079868    0.00435260    0.00290849
    0.12500000    0.03750000   -0.00331226    0.00082089    0.01374974    0.00341246
    0.13750000    0.03750000   -0.00383956    0.00083471    0.02577655    0.00392925
    0.15000000    0.03750000   -0.00437408    0.00084211    0.04041138    0.00445440
    0.16250000    0.03750000   -0.00491226    0.00084461    0.05762213    0.00498434
    0.17500000    0.03750000   -0.00545133    0.00084339    0.07737277    0.00551619
    0.18750000    0.03750000   -0.00598912    0.00083934    0.09962731    0.00604765
    0.20000000    0.03750000   -0.00652390    0.00083305    0.12435207    0.00657687
    0.21250000    0.03750000   -0.00705425    0.00082495    0.15151656    0.00710232
    0.22500000    0.03750000   -0.00757897    0.00081527    0.18109356    0.00762269
    0.23750000    0.03750000   -0.00809699    0.00080413    0.21305856    0.00813682
    0.25000000    0.03750000   -0.00860726    0.00079154    0.24738882    0.00864358
    0.26250000    0.03750000   -0.00910878    0.00077745    0.28406213    0.00914190
    0.27500000    0.03750000   -0.00960048    0.00076177    0.32305554    0.00963066
    0.28750000    0.03750000   -0.01008125    0.00074435    0.36434388    0.01010869
    0.30000000    0.03750000   -0.01054989    0.00072504    0.40789836    0.01057477
    0.31250000    0.03750000   -0.01100510    0.00070367    0.45368514    0.01102758
    0.32500000    0.03750000   -0.01144552    0.00068007    0.50166384    0.01146570
    0.33750000    0.03750000   -0.01186964    0.00065406    0.55178614    0.01188765
    0.35000000    0.03750000   -0.01227590    0.00062548    0.60399441    0.01229183
    0.36250000    0.03750000   -0.01266263    0.00059416    0.65822026    0.01267656
    0.37500000    0.03750000   -0.01302806    0.00055998    0.71438331    0.01304009
    0.38750000    0.03750000   -0.01337038    0.00052280    0.77238989    0.01338060
    0.40000000    0.03750000   -0.01368771    0.00048255    0.83213192    0.01369622
    0.41250000    0.03750000   -0.01397813    0.00043913    0.89348572    0.01398502
    0.42500000    0.03750000   -0.01423968    0.00039253    0.95631110    0.01424509
    0.43750000    0.03750000   -0.01447042    0.00034275    1.02045056    0.01447448
    0.45000000    0.03750000   -0.01466843    0.00028983    1.08572879    0.01467129
    0.46250000    0.03750000   -0.01483184    0.00023386    1.15195236    0.01483368
    0.47500000    0.03750000   -0.01495886    0.00017498    1.21890961    0.01495988
    0.48750000    0.03750000   -0.01504780    0.00011339    1.28637104    0.01504823
    0.50000000    0.03750000   -0.01509714    0.00004932    1.35408998    0.01509722
    0.51250000    0.03750000   -0.01510550   -0.00001691    1.42180371    0.01510551
    0.52500000    0.03750000   -0.01507173   -0.00008494    1.48923504    0.01507197
    0.53750000    0.03750000   -0.01499491   -0.00015438    1.55609430    0.01499570
    0.55000000    0.03750000   -0.01487438   -0.00022475    1.62208180    0.01487608
    0.56250000    0.03750000   -0.01470978   -0.00029556    1.68689061    0.01471275
    0.57500000    0.03750000   -0.01450108   -0.00036627    1.75021000    0.01450570
    0.58750000    0.03750000   -0.01424856   -0.00043631    1.81172919    0.01425524
    0.60000000    0.03750000   -0.01395287   -0.00050508    1.87114120    0.01396201
    0.61250000    0.03750000   -0.01361501   -0.00057198    1.92814709    0.01362702
    0.62500000    0.03750000   -0.01323635   -0.00063639    1.98246051    0.01325163
    0.63750000    0.03750000   -0.01281860   -0.00069772    2.03381204    0.01283758
    0.65000000    0.03750000   -0.01236386   -0.00075537    2.08195368    0.01238692
    0.66250000    0.03750000   -0.01187455   -0.00080878    2.12666315    0.01190206
    0.67500000    0.03750000   -0.01135340   -0.00085743    2.16774757    0.01138574
    0.68750000    0.03750000   -0.01080348   -0.00090082    2.20504744    0.01084097
    0.70000000    0.03750000   -0.01022809   -0.00093849    2.23843964    0.01027106
    0.71250000    0.03750000   -0.00963084   -0.00097006    2.26783985    0.00967957
    0.72500000    0.03750000   -0.00901553   -0.00099514    2.29320495    0.00907028
    0.73750000    0.03750000   -0.00838618   -0.00101343    2.31453400    0.00844719
    0.75000000    0.03750000   -0.00774701   -0.00102463    2.33186939    0.00781447
    0.76250000    0.03750000   -0.00710238   -0.00102849    2.34529673    0.00717646
    0.77500000    0.03750000   -0.00645685   -0.00102477    2.35494456    0.00653766
    0.78750000    0.03750000   -0.00581507   -0.00101325    2.36098346    0.00590269
    0.80000000    0.03750000   -0.00518189   -0.00099372    2.36362456    0.00527631
    0.81250000    0.03750000   -0.00456224   -0.00096596    2.36311799    0.00466338
    0.82500000    0.03750000   -0.00396124   -0.00092975    2.35975069    0.00406889
    0.83750000    0.03750000   -0.00338409   -0.00088490    2.35384436    0.00349788
    0.85000000    0.03750000   -0.00283615   -0.00083121    2.34575298    0.00295545
    0.86250000    0.03750000   -0.00232282   -0.00076855    2.33586049    0.00244667
    0.87500000    0.03750000   -0.00184955   -0.00069691    2.32457808    0.00197649
    0.88750000    0.03750000   -0.00142167   -0.00061646    2.31234170    0.00154957
    0.90000000    0.03750000   -0.00104429   -0.00052769    2.29960883    0.00117005
    0.91250000    0.03750000   -0.00072198   -0.00043166    2.28685548    0.00084118
    0.92500000    0.03750000   -0.00045838   -0.00033024    2.27457069    0.00056495
    0.93750000    0.03750000   -0.00025567   -0.00022663    2.26325235    0.00034166
    0.95000000    0.03750000   -0.00011375   -0.00012604    2.25339454    0.00016978
    0.96250000    0.03750000   -0.00002917   -0.00003684    2.24547023    0.00004699
    0.97500000    0.03750000    0.00000648    0.00002829    2.23998000    0.00002902
    0.98750000    0.03750000    0.00000654    0.00004906    2.23697447    0.00004949
    1.00000000    0.03750000    0.00000000    0.00000000    2.23842222    0.00000000
    0.00000000    0.05000000    0.00000000    0.00000000    0.03472296    0.00000000
    0.01250000    0.05000000   -0.00003589    0.00019218    0.01690868    0.00019551
    0.02500000    0.05000000   -0.00022094    0.00041431    0.01118004    0.00046954
    0.03750000    0.05000000   -0.00049559    0.00063539    0.00402329    0.00080581
    0.05000000    0.05000000   -0.00086083    0.00083285   -0.00041550    0.00119778
    0.06250000    0.05000000   -0.00129987    0.00099936   -0.00301715    0.00163963
    0.07500000    0.05000000   -0.00180097    0.00113354   -0.00326307    0.00212800
    0.08750000    0.05000000   -0.00235167    0.00123777   -0.00110775    0.00265752
    0.10000000    0.05000000   -0.00294111    0.00131592    0.00356017    0.00322207
    0.11250000    0.05000000   -0.00355976    0.00137229    0.01077615    0.00381511
    0.12500000    0.05000000   -0.00419960    0.00141099    0.02055416    0.00443030
    0.13750000    0.05000000   -0.00485401    0.00143568    0.03288501    0.00506187
    0.15000000    0.05000000   -0.00551761    0.00144943    0.04774799    0.00570481
    0.16250000    0.05000000   -0.00618611    0.00145470    0.06511600    0.00635485
    0.17500000    0.05000000   -0.00685607    0.00145345    0.08495996    0.00700844
    0.18750000    0.05000000   -0.00752474    0.00144710    0.10725134    0.00766262
    0.20000000    0.05000000   -0.00818989    0.00143670    0.13196360    0.00831495
    0.21250000    0.05000000   -0.00884967    0.00142295    0.15907269    0.00896333
    0.22500000    0.05000000   -0.00950247    0.00140627    0.18855688    0.00960596
    0.23750000    0.05000000   -0.01014685    0.00138690    0.22039619    0.01024120
    0.25000000    0.05000000   -0.01078145    0.00136488    0.25457149    0.01086750
    0.26250000    0.05000000   -0.01140490    0.00134015    0.29106340    0.01148337
    0.27500000    0.05000000   -0.01201583    0.00131256    0.32985110    0.01208731
    0.28750000    0.05000000   -0.01261279    0.00128191    0.37091105    0.01267777
    0.30000000    0.05000000   -0.01319425    0.00124794    0.41421570    0.01325313
    0.31250000    0.05000000   -0.01375857    0.00121039    0.45973213    0.01381171
    0.32500000    0.05000000   -0.01430403    0.00116898    0.50742077    0.01435171